# vtk DataFile Version 2.0
This file was created by Fortran
ASCII
DATASET UNSTRUCTURED_GRID
POINTS  1921  DOUBLE
   0.000000E+00   0.100000E+01   0.000000E+00
   0.625000E-01   0.100000E+01   0.000000E+00
   0.000000E+00   0.937500E+00   0.000000E+00
   0.625000E-01   0.937500E+00   0.000000E+00
   0.000000E+00   0.875000E+00   0.000000E+00
   0.125000E+00   0.100000E+01   0.000000E+00
   0.625000E-01   0.875000E+00   0.000000E+00
   0.125000E+00   0.937500E+00   0.000000E+00
   0.125000E+00   0.875000E+00   0.000000E+00
   0.000000E+00   0.812500E+00   0.000000E+00
   0.187500E+00   0.100000E+01   0.000000E+00
   0.187500E+00   0.937500E+00   0.000000E+00
   0.625000E-01   0.812500E+00   0.000000E+00
   0.187500E+00   0.875000E+00   0.000000E+00
   0.125000E+00   0.812500E+00   0.000000E+00
   0.000000E+00   0.750000E+00   0.000000E+00
   0.250000E+00   0.100000E+01   0.000000E+00
   0.250000E+00   0.937500E+00   0.000000E+00
   0.625000E-01   0.750000E+00   0.000000E+00
   0.187500E+00   0.812500E+00   0.000000E+00
   0.125000E+00   0.750000E+00   0.000000E+00
   0.250000E+00   0.875000E+00   0.000000E+00
   0.312500E+00   0.100000E+01   0.000000E+00
   0.250000E+00   0.812500E+00   0.000000E+00
   0.187500E+00   0.750000E+00   0.000000E+00
   0.000000E+00   0.687500E+00   0.000000E+00
   0.625000E-01   0.687500E+00   0.000000E+00
   0.312500E+00   0.937500E+00   0.000000E+00
   0.125000E+00   0.687500E+00   0.000000E+00
   0.312500E+00   0.875000E+00   0.000000E+00
   0.250000E+00   0.750000E+00   0.000000E+00
   0.312500E+00   0.812500E+00   0.000000E+00
   0.187500E+00   0.687500E+00   0.000000E+00
   0.000000E+00   0.625000E+00   0.000000E+00
   0.375000E+00   0.100000E+01   0.000000E+00
   0.625000E-01   0.625000E+00   0.000000E+00
   0.375000E+00   0.937500E+00   0.000000E+00
   0.375000E+00   0.875000E+00   0.000000E+00
   0.125000E+00   0.625000E+00   0.000000E+00
   0.250000E+00   0.687500E+00   0.000000E+00
   0.312500E+00   0.750000E+00   0.000000E+00
   0.187500E+00   0.625000E+00   0.000000E+00
   0.375000E+00   0.812500E+00   0.000000E+00
   0.000000E+00   0.562500E+00   0.000000E+00
   0.437500E+00   0.100000E+01   0.000000E+00
   0.437500E+00   0.937500E+00   0.000000E+00
   0.312500E+00   0.687500E+00   0.000000E+00
   0.625000E-01   0.562500E+00   0.000000E+00
   0.375000E+00   0.750000E+00   0.000000E+00
   0.250000E+00   0.625000E+00   0.000000E+00
   0.437500E+00   0.875000E+00   0.000000E+00
   0.125000E+00   0.562500E+00   0.000000E+00
   0.437500E+00   0.812500E+00   0.000000E+00
   0.187500E+00   0.562500E+00   0.000000E+00
   0.375000E+00   0.687500E+00   0.000000E+00
   0.312500E+00   0.625000E+00   0.000000E+00
   0.000000E+00   0.500000E+00   0.000000E+00
   0.500000E+00   0.100000E+01   0.000000E+00
   0.625000E-01   0.500000E+00   0.000000E+00
   0.250000E+00   0.562500E+00   0.000000E+00
   0.500000E+00   0.937500E+00   0.000000E+00
   0.437500E+00   0.750000E+00   0.000000E+00
   0.500000E+00   0.875000E+00   0.000000E+00
   0.125000E+00   0.500000E+00   0.000000E+00
   0.375000E+00   0.625000E+00   0.000000E+00
   0.500000E+00   0.812500E+00   0.000000E+00
   0.187500E+00   0.500000E+00   0.000000E+00
   0.437500E+00   0.687500E+00   0.000000E+00
   0.312500E+00   0.562500E+00   0.000000E+00
   0.500000E+00   0.750000E+00   0.000000E+00
   0.250000E+00   0.500000E+00   0.000000E+00
   0.562500E+00   0.100000E+01   0.000000E+00
   0.000000E+00   0.437500E+00   0.000000E+00
   0.562500E+00   0.937500E+00   0.000000E+00
   0.625000E-01   0.437500E+00   0.000000E+00
   0.375000E+00   0.562500E+00   0.000000E+00
   0.437500E+00   0.625000E+00   0.000000E+00
   0.125000E+00   0.437500E+00   0.000000E+00
   0.562500E+00   0.875000E+00   0.000000E+00
   0.500000E+00   0.687500E+00   0.000000E+00
   0.312500E+00   0.500000E+00   0.000000E+00
   0.562500E+00   0.812500E+00   0.000000E+00
   0.187500E+00   0.437500E+00   0.000000E+00
   0.562500E+00   0.750000E+00   0.000000E+00
   0.250000E+00   0.437500E+00   0.000000E+00
   0.437500E+00   0.562500E+00   0.000000E+00
   0.625000E+00   0.100000E+01   0.000000E+00
   0.375000E+00   0.500000E+00   0.000000E+00
   0.000000E+00   0.375000E+00   0.000000E+00
   0.500000E+00   0.625000E+00   0.000000E+00
   0.625000E-01   0.375000E+00   0.000000E+00
   0.625000E+00   0.937500E+00   0.000000E+00
   0.625000E+00   0.875000E+00   0.000000E+00
   0.125000E+00   0.375000E+00   0.000000E+00
   0.562500E+00   0.687500E+00   0.000000E+00
   0.312500E+00   0.437500E+00   0.000000E+00
   0.625000E+00   0.812500E+00   0.000000E+00
   0.187500E+00   0.375000E+00   0.000000E+00
   0.500000E+00   0.562500E+00   0.000000E+00
   0.437500E+00   0.500000E+00   0.000000E+00
   0.625000E+00   0.750000E+00   0.000000E+00
   0.250000E+00   0.375000E+00   0.000000E+00
   0.375000E+00   0.437500E+00   0.000000E+00
   0.562500E+00   0.625000E+00   0.000000E+00
   0.687500E+00   0.100000E+01   0.000000E+00
   0.000000E+00   0.312500E+00   0.000000E+00
   0.687500E+00   0.937500E+00   0.000000E+00
   0.625000E-01   0.312500E+00   0.000000E+00
   0.687500E+00   0.875000E+00   0.000000E+00
   0.125000E+00   0.312500E+00   0.000000E+00
   0.312500E+00   0.375000E+00   0.000000E+00
   0.625000E+00   0.687500E+00   0.000000E+00
   0.500000E+00   0.500000E+00   0.000000E+00
   0.562500E+00   0.562500E+00   0.000000E+00
   0.687500E+00   0.812500E+00   0.000000E+00
   0.437500E+00   0.437500E+00   0.000000E+00
   0.187500E+00   0.312500E+00   0.000000E+00
   0.375000E+00   0.375000E+00   0.000000E+00
   0.625000E+00   0.625000E+00   0.000000E+00
   0.687500E+00   0.750000E+00   0.000000E+00
   0.250000E+00   0.312500E+00   0.000000E+00
   0.750000E+00   0.100000E+01   0.000000E+00
   0.000000E+00   0.250000E+00   0.000000E+00
   0.562500E+00   0.500000E+00   0.000000E+00
   0.750000E+00   0.937500E+00   0.000000E+00
   0.500000E+00   0.437500E+00   0.000000E+00
   0.625000E-01   0.250000E+00   0.000000E+00
   0.312500E+00   0.312500E+00   0.000000E+00
   0.687500E+00   0.687500E+00   0.000000E+00
   0.750000E+00   0.875000E+00   0.000000E+00
   0.125000E+00   0.250000E+00   0.000000E+00
   0.625000E+00   0.562500E+00   0.000000E+00
   0.437500E+00   0.375000E+00   0.000000E+00
   0.187500E+00   0.250000E+00   0.000000E+00
   0.750000E+00   0.812500E+00   0.000000E+00
   0.687500E+00   0.625000E+00   0.000000E+00
   0.375000E+00   0.312500E+00   0.000000E+00
   0.750000E+00   0.750000E+00   0.000000E+00
   0.250000E+00   0.250000E+00   0.000000E+00
   0.562500E+00   0.437500E+00   0.000000E+00
   0.500000E+00   0.375000E+00   0.000000E+00
   0.625000E+00   0.500000E+00   0.000000E+00
   0.812500E+00   0.100000E+01   0.000000E+00
   0.000000E+00   0.187500E+00   0.000000E+00
   0.750000E+00   0.687500E+00   0.000000E+00
   0.312500E+00   0.250000E+00   0.000000E+00
   0.812500E+00   0.937500E+00   0.000000E+00
   0.687500E+00   0.562500E+00   0.000000E+00
   0.625000E-01   0.187500E+00   0.000000E+00
   0.437500E+00   0.312500E+00   0.000000E+00
   0.812500E+00   0.875000E+00   0.000000E+00
   0.125000E+00   0.187500E+00   0.000000E+00
   0.812500E+00   0.812500E+00   0.000000E+00
   0.187500E+00   0.187500E+00   0.000000E+00
   0.750000E+00   0.625000E+00   0.000000E+00
   0.375000E+00   0.250000E+00   0.000000E+00
   0.562500E+00   0.375000E+00   0.000000E+00
   0.625000E+00   0.437500E+00   0.000000E+00
   0.500000E+00   0.312500E+00   0.000000E+00
   0.250000E+00   0.187500E+00   0.000000E+00
   0.812500E+00   0.750000E+00   0.000000E+00
   0.687500E+00   0.500000E+00   0.000000E+00
   0.750000E+00   0.562500E+00   0.000000E+00
   0.437500E+00   0.250000E+00   0.000000E+00
   0.812500E+00   0.687500E+00   0.000000E+00
   0.312500E+00   0.187500E+00   0.000000E+00
   0.875000E+00   0.100000E+01   0.000000E+00
   0.000000E+00   0.125000E+00   0.000000E+00
   0.625000E-01   0.125000E+00   0.000000E+00
   0.875000E+00   0.937500E+00   0.000000E+00
   0.875000E+00   0.875000E+00   0.000000E+00
   0.625000E+00   0.375000E+00   0.000000E+00
   0.125000E+00   0.125000E+00   0.000000E+00
   0.687500E+00   0.437500E+00   0.000000E+00
   0.562500E+00   0.312500E+00   0.000000E+00
   0.812500E+00   0.625000E+00   0.000000E+00
   0.875000E+00   0.812500E+00   0.000000E+00
   0.375000E+00   0.187500E+00   0.000000E+00
   0.187500E+00   0.125000E+00   0.000000E+00
   0.750000E+00   0.500000E+00   0.000000E+00
   0.500000E+00   0.250000E+00   0.000000E+00
   0.250000E+00   0.125000E+00   0.000000E+00
   0.875000E+00   0.750000E+00   0.000000E+00
   0.812500E+00   0.562500E+00   0.000000E+00
   0.437500E+00   0.187500E+00   0.000000E+00
   0.875000E+00   0.687500E+00   0.000000E+00
   0.625000E+00   0.312500E+00   0.000000E+00
   0.312500E+00   0.125000E+00   0.000000E+00
   0.687500E+00   0.375000E+00   0.000000E+00
   0.000000E+00   0.625000E-01   0.000000E+00
   0.750000E+00   0.437500E+00   0.000000E+00
   0.562500E+00   0.250000E+00   0.000000E+00
   0.937500E+00   0.100000E+01   0.000000E+00
   0.625000E-01   0.625000E-01   0.000000E+00
   0.937500E+00   0.937500E+00   0.000000E+00
   0.937500E+00   0.875000E+00   0.000000E+00
   0.125000E+00   0.625000E-01   0.000000E+00
   0.875000E+00   0.625000E+00   0.000000E+00
   0.375000E+00   0.125000E+00   0.000000E+00
   0.500000E+00   0.187500E+00   0.000000E+00
   0.812500E+00   0.500000E+00   0.000000E+00
   0.937500E+00   0.812500E+00   0.000000E+00
   0.187500E+00   0.625000E-01   0.000000E+00
   0.250000E+00   0.625000E-01   0.000000E+00
   0.937500E+00   0.750000E+00   0.000000E+00
   0.687500E+00   0.312500E+00   0.000000E+00
   0.750000E+00   0.375000E+00   0.000000E+00
   0.625000E+00   0.250000E+00   0.000000E+00
   0.875000E+00   0.562500E+00   0.000000E+00
   0.437500E+00   0.125000E+00   0.000000E+00
[...]
POINT_DATA  1921
SCALARS  vx_strength  double
LOOKUP_TABLE default
   0.000000E+00
   0.000000E+00
   0.000000E+00
   0.000000E+00
   0.000000E+00
   0.000000E+00
   0.000000E+00
   0.000000E+00
   0.000000E+00
   0.000000E+00
   0.000000E+00
   0.000000E+00
   0.000000E+00
   0.000000E+00
   0.000000E+00
   0.000000E+00
   0.000000E+00
   0.000000E+00
   0.000000E+00
   0.000000E+00
   0.000000E+00
   0.000000E+00
   0.000000E+00
   0.000000E+00
   0.000000E+00
   0.000000E+00
   0.000000E+00
   0.000000E+00
   0.000000E+00
   0.000000E+00
   0.000000E+00
   0.000000E+00
   0.000000E+00
   0.000000E+00
   0.000000E+00
   0.000000E+00
   0.000000E+00
   0.000000E+00
   0.000000E+00
   0.000000E+00
   0.000000E+00
   0.000000E+00
   0.000000E+00
   0.000000E+00
   0.000000E+00
   0.000000E+00
   0.000000E+00
   0.000000E+00
   0.000000E+00
   0.000000E+00
   0.000000E+00
   0.000000E+00
   0.000000E+00
   0.000000E+00
   0.000000E+00
   0.000000E+00
   0.000000E+00
   0.000000E+00
   0.000000E+00
   0.000000E+00
   0.000000E+00
   0.000000E+00
   0.000000E+00
   0.000000E+00
   0.000000E+00
   0.000000E+00
   0.000000E+00
   0.000000E+00
   0.000000E+00
   0.000000E+00
   0.000000E+00
   0.000000E+00
   0.000000E+00
   0.000000E+00
   0.000000E+00
   0.000000E+00
   0.000000E+00
   0.000000E+00
   0.000000E+00
   0.000000E+00
   0.000000E+00
   0.000000E+00
   0.000000E+00
   0.000000E+00
   0.000000E+00
   0.000000E+00
   0.000000E+00
   0.000000E+00
   0.000000E+00
   0.000000E+00
   0.000000E+00
   0.000000E+00
   0.000000E+00
   0.000000E+00
   0.000000E+00
   0.000000E+00
   0.000000E+00
   0.000000E+00
   0.000000E+00
   0.000000E+00
   0.000000E+00
   0.000000E+00
   0.000000E+00
   0.000000E+00
   0.000000E+00
   0.000000E+00
   0.000000E+00
   0.000000E+00
   0.000000E+00
   0.000000E+00
   0.000000E+00
   0.000000E+00
   0.000000E+00
   0.000000E+00
   0.000000E+00
   0.000000E+00
   0.000000E+00
   0.000000E+00
   0.000000E+00
   0.000000E+00
   0.000000E+00
   0.000000E+00
   0.000000E+00
   0.000000E+00
   0.000000E+00
   0.000000E+00
   0.000000E+00
   0.000000E+00
   0.000000E+00
   0.000000E+00
   0.000000E+00
   0.000000E+00
   0.000000E+00
   0.000000E+00
   0.000000E+00
   0.000000E+00
   0.000000E+00
   0.000000E+00
   0.000000E+00
   0.000000E+00
   0.000000E+00
   0.000000E+00
   0.000000E+00
   0.000000E+00
   0.000000E+00
   0.000000E+00
   0.000000E+00
   0.000000E+00
   0.000000E+00
   0.000000E+00
   0.000000E+00
   0.000000E+00
   0.000000E+00
   0.000000E+00
   0.000000E+00
   0.000000E+00
   0.000000E+00
   0.000000E+00
   0.000000E+00
   0.000000E+00
   0.000000E+00
   0.000000E+00
   0.000000E+00
   0.000000E+00
   0.000000E+00
   0.000000E+00
   0.000000E+00
   0.000000E+00
   0.000000E+00
   0.000000E+00
   0.000000E+00
   0.000000E+00
   0.000000E+00
   0.000000E+00
   0.000000E+00
   0.000000E+00
   0.000000E+00
   0.000000E+00
   0.000000E+00
   0.000000E+00
   0.000000E+00
   0.000000E+00
   0.000000E+00
   0.000000E+00
   0.000000E+00
   0.000000E+00
   0.000000E+00
   0.000000E+00
   0.000000E+00
   0.000000E+00
   0.000000E+00
   0.000000E+00
   0.000000E+00
   0.000000E+00
   0.000000E+00
   0.000000E+00
   0.000000E+00
   0.000000E+00
   0.000000E+00
   0.000000E+00
   0.000000E+00
   0.000000E+00
   0.000000E+00
   0.000000E+00
   0.000000E+00
   0.000000E+00
   0.000000E+00
   0.000000E+00
   0.000000E+00
   0.000000E+00
   0.000000E+00
   0.000000E+00
   0.000000E+00
   0.000000E+00
   0.000000E+00
   0.000000E+00
   0.000000E+00
   0.000000E+00
   0.000000E+00
   0.000000E+00
   0.000000E+00
   0.000000E+00
   0.000000E+00
   0.000000E+00
   0.000000E+00
   0.000000E+00
   0.000000E+00
   0.000000E+00
   0.000000E+00
   0.000000E+00
   0.000000E+00
   0.000000E+00
   0.000000E+00
   0.000000E+00
   0.000000E+00
   0.000000E+00
   0.000000E+00
   0.000000E+00
   0.000000E+00
   0.000000E+00
   0.000000E+00
   0.000000E+00
   0.000000E+00
   0.000000E+00
   0.000000E+00
   0.000000E+00
   0.000000E+00
   0.000000E+00
   0.000000E+00
   0.000000E+00
   0.000000E+00
   0.000000E+00
   0.000000E+00
   0.000000E+00
   0.000000E+00
   0.000000E+00
   0.000000E+00
   0.000000E+00
   0.000000E+00
   0.000000E+00
   0.000000E+00
   0.000000E+00
   0.000000E+00
   0.000000E+00
   0.000000E+00
   0.000000E+00
   0.000000E+00
   0.000000E+00
   0.000000E+00
   0.000000E+00
   0.000000E+00
   0.000000E+00
   0.000000E+00
   0.000000E+00
   0.000000E+00
   0.000000E+00
   0.000000E+00
   0.000000E+00
   0.000000E+00
   0.000000E+00
   0.000000E+00
   0.000000E+00
   0.000000E+00
   0.000000E+00
   0.000000E+00
   0.000000E+00
   0.000000E+00
   0.000000E+00
   0.000000E+00
   0.731600E-02
   0.731600E-02
   0.731600E-02
   0.731600E-02
   0.731600E-02
   0.731600E-02
   0.656760E-02
   0.656760E-02
   0.656760E-02
   0.748399E-03
   0.748399E-03
   0.748399E-03
   0.753563E-03
   0.753563E-03
   0.753563E-03
   0.656244E-02
   0.656244E-02
   0.656244E-02
   0.130971E-02
   0.130971E-02
   0.130971E-02
   0.130454E-02
   0.130454E-02
   0.130454E-02
   0.405058E-03
   0.405058E-03
   0.405058E-03
   0.696750E-02
   0.696750E-02
   0.696750E-02
   0.697649E-02
   0.697649E-02
   0.697649E-02
   0.408882E-03
   0.408882E-03
   0.408882E-03
   0.113516E-03
   0.113516E-03
   0.113516E-03
   0.182312E-02
   0.182312E-02
   0.182312E-02
   0.180345E-02
   0.180345E-02
   0.180345E-02
   0.848637E-04
   0.848637E-04
   0.848637E-04
   0.843615E-03
   0.843615E-03
   0.843615E-03
   0.814962E-03
   0.814962E-03
   0.814962E-03
   0.122563E-03
   0.122563E-03
   0.122563E-03
   0.709006E-02
   0.709006E-02
   0.709006E-02
   0.709907E-02
   0.709907E-02
   0.709907E-02
   0.122587E-03
   0.122587E-03
   0.122587E-03
   0.192987E-02
   0.192987E-02
   0.192987E-02
   0.383332E-05
   0.383332E-05
   0.383332E-05
   0.207745E-04
   0.207745E-04
   0.207745E-04
   0.196645E-02
   0.196645E-02
   0.196645E-02
   0.127447E-02
   0.127447E-02
   0.127447E-02
   0.434691E-03
   0.434691E-03
   0.434691E-03
   0.476745E-03
   0.476745E-03
   0.476745E-03
   0.127093E-02
   0.127093E-02
   0.127093E-02
   0.158838E-03
   0.158838E-03
   0.158838E-03
   0.724890E-02
   0.724890E-02
   0.724890E-02
   0.725776E-02
   0.725776E-02
   0.725776E-02
   0.158688E-03
   0.158688E-03
   0.158688E-03
   0.193946E-02
   0.193946E-02
   0.193946E-02
   0.149099E-03
   0.149099E-03
   0.149099E-03
   0.142303E-03
   0.142303E-03
   0.142303E-03
   0.198299E-02
   0.198299E-02
   0.198299E-02
   0.820745E-03
   0.820745E-03
   0.820745E-03
   0.778691E-03
   0.778691E-03
   0.778691E-03
   0.104071E-03
   0.104071E-03
   0.104071E-03
   0.151731E-02
   0.151731E-02
   0.151731E-02
   0.149894E-02
   0.149894E-02
   0.149894E-02
   0.753690E-04
   0.753690E-04
   0.753690E-04
   0.737512E-02
   0.737512E-02
   0.737512E-02
   0.117363E-03
   0.117363E-03
   0.117363E-03
   0.103211E-02
   0.103211E-02
   0.103211E-02
   0.286736E-03
   0.286736E-03
   0.286736E-03
   0.323939E-03
   0.323939E-03
   0.323939E-03
   0.998558E-03
   0.998558E-03
   0.998558E-03
   0.116887E-03
   0.116887E-03
   0.116887E-03
   0.736579E-02
   0.736579E-02
   0.736579E-02
   0.131750E-03
   0.131750E-03
   0.131750E-03
   0.196812E-02
   0.196812E-02
   0.196812E-02
   0.192118E-02
   0.192118E-02
   0.192118E-02
   0.135645E-03
   0.135645E-03
   0.135645E-03
   0.984707E-05
   0.984707E-05
   0.984707E-05
   0.165890E-02
   0.165890E-02
   0.165890E-02
   0.162374E-02
   0.162374E-02
   0.162374E-02
   0.108405E-04
   0.108405E-04
   0.108405E-04
   0.460981E-03
   0.460981E-03
   0.460981E-03
   0.423779E-03
   0.423779E-03
   0.423779E-03
   0.116316E-02
   0.116316E-02
   0.116316E-02
   0.120206E-03
   0.120206E-03
   0.120206E-03
   0.150415E-03
   0.150415E-03
   0.150415E-03
   0.113913E-02
   0.113913E-02
   0.113913E-02
   0.812945E-04
   0.812945E-04
   0.812945E-04
   0.744708E-02
   0.744708E-02
   0.744708E-02
   0.745746E-02
   0.745746E-02
   0.745746E-02
   0.823364E-04
   0.823364E-04
   0.823364E-04
   0.994215E-04
   0.994215E-04
   0.994215E-04
   0.195000E-02
   0.195000E-02
   0.195000E-02
   0.190100E-02
   0.190100E-02
   0.190100E-02
   0.102515E-03
   0.102515E-03
   0.102515E-03
   0.168904E-02
   0.168904E-02
   0.168904E-02
   0.372212E-04
   0.372212E-04
   0.372212E-04
   0.213933E-04
   0.213933E-04
   0.213933E-04
   0.173693E-02
   0.173693E-02
   0.173693E-02
   0.239364E-03
   0.239364E-03
   0.239364E-03
   0.512727E-03
   0.512727E-03
   0.512727E-03
   0.547194E-03
   0.547194E-03
   0.547194E-03
   0.206419E-03
   0.206419E-03
   0.206419E-03
   0.630109E-04
   0.630109E-04
   0.630109E-04
   0.122353E-02
   0.122353E-02
   0.122353E-02
   0.123858E-02
   0.123858E-02
   0.123858E-02
   0.382005E-04
   0.382005E-04
   0.382005E-04
   0.407720E-04
   0.407720E-04
   0.407720E-04
   0.748785E-02
   0.748785E-02
   0.748785E-02
   0.749971E-02
   0.749971E-02
   0.749971E-02
   0.422472E-04
   0.422472E-04
   0.422472E-04
   0.188844E-02
   0.188844E-02
   0.188844E-02
   0.548119E-04
   0.548119E-04
   0.548119E-04
   0.296244E-03
   0.296244E-03
   0.296244E-03
   0.263299E-03
   0.263299E-03
   0.263299E-03
   0.514879E-04
   0.514879E-04
   0.514879E-04
   0.193928E-02
   0.193928E-02
   0.193928E-02
   0.597021E-03
   0.597021E-03
   0.597021E-03
   0.880273E-04
   0.880273E-04
   0.880273E-04
   0.116699E-03
   0.116699E-03
   0.116699E-03
   0.566416E-03
   0.566416E-03
   0.566416E-03
   0.171442E-02
   0.171442E-02
   0.171442E-02
   0.294338E-04
   0.294338E-04
   0.294338E-04
   0.163373E-04
   0.163373E-04
   0.163373E-04
   0.177208E-02
   0.177208E-02
   0.177208E-02
   0.127044E-02
   0.127044E-02
   0.127044E-02
   0.242665E-05
   0.242665E-05
   0.242665E-05
   0.234487E-04
   0.234487E-04
   0.234487E-04
   0.126332E-02
   0.126332E-02
   0.126332E-02
   0.329466E-03
   0.329466E-03
   0.329466E-03
   0.121249E-03
   0.121249E-03
   0.121249E-03
   0.151419E-03
   0.151419E-03
   0.151419E-03
   0.298019E-03
   0.298019E-03
   0.298019E-03
   0.138778E-16
   0.138778E-16
   0.138778E-16
   0.748785E-02
   0.748785E-02
   0.748785E-02
   0.750148E-02
   0.750148E-02
   0.750148E-02
   0.176674E-05
   0.176674E-05
   0.176674E-05
   0.809538E-17
   0.809538E-17
   0.809538E-17
   0.193928E-02
   0.193928E-02
   0.193928E-02
   0.488070E-04
   0.488070E-04
   0.488070E-04
   0.591774E-03
   0.591774E-03
   0.591774E-03
   0.188618E-02
   0.188618E-02
   0.188618E-02
   0.402082E-05
   0.402082E-05
   0.402082E-05
   0.618114E-03
   0.618114E-03
   0.618114E-03
   0.235191E-04
   0.235191E-04
   0.235191E-04
   0.170691E-02
   0.170691E-02
   0.170691E-02
   0.115300E-04
   0.115300E-04
   0.115300E-04
   0.404769E-17
   0.404769E-17
   0.404769E-17
   0.177208E-02
   0.177208E-02
   0.177208E-02
   0.171893E-03
   0.171893E-03
   0.171893E-03
   0.141723E-03
   0.141723E-03
   0.141723E-03
   0.126367E-02
   0.126367E-02
   0.126367E-02
   0.183024E-04
   0.183024E-04
   0.183024E-04
   0.000000E+00
   0.000000E+00
   0.000000E+00
   0.126332E-02
   0.126332E-02
   0.126332E-02
   0.343622E-03
   0.343622E-03
   0.343622E-03
   0.376756E-04
   0.376756E-04
   0.376756E-04
   0.653083E-04
   0.653083E-04
   0.653083E-04
   0.314520E-03
   0.314520E-03
   0.314520E-03
   0.613707E-03
   0.613707E-03
   0.613707E-03
   0.227088E-04
   0.227088E-04
   0.227088E-04
   0.318033E-17
   0.318033E-17
   0.318033E-17
   0.591774E-03
   0.591774E-03
   0.591774E-03
   0.746256E-02
   0.746256E-02
   0.746256E-02
   0.389127E-04
   0.389127E-04
   0.389127E-04
   0.407720E-04
   0.407720E-04
   0.407720E-04
   0.744708E-02
   0.744708E-02
   0.744708E-02
   0.189384E-02
   0.189384E-02
   0.189384E-02
   0.465678E-04
   0.465678E-04
   0.465678E-04
   0.514879E-04
   0.514879E-04
   0.514879E-04
   0.195000E-02
   0.195000E-02
   0.195000E-02
   0.751005E-04
   0.751005E-04
   0.751005E-04
   0.151515E-03
   0.151515E-03
   0.151515E-03
   0.180681E-03
   0.180681E-03
   0.180681E-03
   0.464630E-04
   0.464630E-04
   0.464630E-04
   0.163373E-04
   0.163373E-04
   0.163373E-04
   0.173693E-02
   0.173693E-02
   0.173693E-02
   0.166614E-02
   0.166614E-02
   0.166614E-02
   0.580583E-05
   0.580583E-05
   0.580583E-05
   0.340718E-03
   0.340718E-03
   0.340718E-03
   0.256133E-04
   0.256133E-04
   0.256133E-04
   0.578241E-18
   0.578241E-18
   0.578241E-18
   0.314520E-03
   0.314520E-03
   0.314520E-03
   0.121828E-02
   0.121828E-02
   0.121828E-02
   0.395787E-04
   0.395787E-04
   0.395787E-04
   0.234487E-04
   0.234487E-04
   0.234487E-04
   0.122353E-02
   0.122353E-02
   0.122353E-02
   0.583916E-03
   0.583916E-03
   0.583916E-03
   0.693699E-04
   0.693699E-04
   0.693699E-04
   0.488070E-04
   0.488070E-04
   0.488070E-04
   0.566416E-03
   0.566416E-03
   0.566416E-03
   0.793245E-04
   0.793245E-04
   0.793245E-04
   0.506870E-04
   0.506870E-04
   0.506870E-04
   0.738288E-02
   0.738288E-02
   0.738288E-02
   0.796794E-04
   0.796794E-04
   0.796794E-04
   0.173472E-17
   0.173472E-17
   0.173472E-17
   0.151515E-03
   0.151515E-03
   0.151515E-03
   0.812945E-04
   0.812945E-04
   0.812945E-04
   0.736579E-02
   0.736579E-02
   0.736579E-02
   0.178909E-03
   0.178909E-03
   0.178909E-03
   0.273855E-04
   0.273855E-04
   0.273855E-04
   0.994215E-04
   0.994215E-04
   0.994215E-04
   0.196812E-02
   0.196812E-02
   0.196812E-02
   0.190776E-02
   0.190776E-02
   0.190776E-02
   0.936022E-04
   0.936022E-04
   0.936022E-04
   0.158438E-02
   0.158438E-02
   0.158438E-02
   0.118380E-04
   0.118380E-04
   0.118380E-04
   0.213933E-04
   0.213933E-04
   0.213933E-04
   0.165890E-02
   0.165890E-02
   0.165890E-02
   0.320886E-03
   0.320886E-03
   0.320886E-03
   0.892014E-04
   0.892014E-04
   0.892014E-04
   0.653083E-04
   0.653083E-04
   0.653083E-04
   0.298019E-03
   0.298019E-03
   0.298019E-03
   0.112951E-02
   0.112951E-02
   0.112951E-02
   0.769314E-04
   0.769314E-04
   0.769314E-04
   0.630109E-04
   0.630109E-04
   0.630109E-04
   0.113913E-02
   0.113913E-02
   0.113913E-02
   0.784822E-04
   0.784822E-04
   0.784822E-04
   0.282278E-04
   0.282278E-04
   0.282278E-04
   0.231296E-17
   0.231296E-17
   0.231296E-17
   0.506870E-04
   0.506870E-04
   0.506870E-04
   0.525845E-03
   0.525845E-03
   0.525845E-03
   0.135002E-03
   0.135002E-03
   0.135002E-03
   0.116699E-03
   0.116699E-03
   0.116699E-03
   0.512727E-03
   0.512727E-03
   0.512727E-03
   0.751005E-04
   0.751005E-04
   0.751005E-04
   0.141723E-03
   0.141723E-03
   0.141723E-03
   0.166688E-03
   0.166688E-03
   0.166688E-03
   0.101422E-03
   0.101422E-03
   0.101422E-03
   0.726671E-02
   0.726671E-02
   0.726671E-02
   0.116177E-03
   0.116177E-03
   0.116177E-03
   0.116887E-03
   0.116887E-03
   0.116887E-03
   0.724890E-02
   0.724890E-02
   0.724890E-02
   0.191717E-02
   0.191717E-02
   0.191717E-02
   0.125584E-03
   0.125584E-03
   0.125584E-03
   0.131750E-03
   0.131750E-03
   0.131750E-03
   0.198299E-02
   0.198299E-02
   0.198299E-02
   0.144154E-02
   0.144154E-02
   0.144154E-02
   0.172557E-04
   0.172557E-04
   0.172557E-04
   0.984707E-05
   0.984707E-05
   0.984707E-05
   0.151731E-02
   0.151731E-02
   0.151731E-02
   0.151419E-03
   0.151419E-03
   0.151419E-03
   0.263299E-03
   0.263299E-03
   0.263299E-03
   0.282476E-03
   0.282476E-03
   0.282476E-03
   0.173412E-03
   0.173412E-03
   0.173412E-03
   0.433681E-17
   0.433681E-17
   0.433681E-17
   0.282278E-04
   0.282278E-04
   0.282278E-04
   0.726349E-04
   0.726349E-04
   0.726349E-04
   0.107269E-03
   0.107269E-03
   0.107269E-03
   0.986008E-03
   0.986008E-03
   0.986008E-03
   0.160761E-03
   0.160761E-03
   0.160761E-03
   0.793245E-04
   0.793245E-04
   0.793245E-04
   0.464630E-04
   0.464630E-04
   0.464630E-04
   0.150415E-03
   0.150415E-03
   0.150415E-03
   0.998558E-03
   0.998558E-03
   0.998558E-03
   0.171893E-03
   0.171893E-03
   0.171893E-03
   0.121249E-03
   0.121249E-03
   0.121249E-03
   0.143165E-03
   0.143165E-03
   0.143165E-03
   0.196934E-03
   0.196934E-03
   0.196934E-03
   0.432711E-03
   0.432711E-03
   0.432711E-03
   0.253896E-03
   0.253896E-03
   0.253896E-03
   0.239364E-03
   0.239364E-03
   0.239364E-03
   0.423779E-03
   0.423779E-03
   0.423779E-03
   0.710637E-02
   0.710637E-02
   0.710637E-02
   0.160336E-03
   0.160336E-03
   0.160336E-03
   0.158838E-03
   0.158838E-03
   0.158838E-03
   0.709006E-02
   0.709006E-02
   0.709006E-02
   0.520417E-17
   0.520417E-17
   0.520417E-17
   0.107269E-03
   0.107269E-03
   0.107269E-03
   0.189405E-02
   0.189405E-02
   0.189405E-02
   0.137217E-03
   0.137217E-03
   0.137217E-03
   0.784822E-04
   0.784822E-04
   0.784822E-04
   0.273855E-04
   0.273855E-04
   0.273855E-04
   0.142303E-03
   0.142303E-03
   0.142303E-03
   0.196645E-02
   0.196645E-02
   0.196645E-02
   0.296244E-03
   0.296244E-03
   0.296244E-03
   0.206419E-03
   0.206419E-03
   0.206419E-03
   0.221626E-03
   0.221626E-03
   0.221626E-03
   0.314746E-03
   0.314746E-03
   0.314746E-03
   0.119815E-02
   0.119815E-02
   0.119815E-02
   0.106170E-03
   0.106170E-03
   0.106170E-03
   0.104071E-03
   0.104071E-03
   0.104071E-03
   0.127093E-02
   0.127093E-02
   0.127093E-02
   0.614259E-04
   0.614259E-04
   0.614259E-04
   0.208143E-03
   0.208143E-03
   0.208143E-03
   0.180681E-03
   0.180681E-03
   0.180681E-03
   0.376756E-04
   0.376756E-04
   0.376756E-04
   0.323939E-03
   0.323939E-03
   0.323939E-03
   0.778691E-03
   0.778691E-03
   0.778691E-03
   0.765381E-03
   0.765381E-03
   0.765381E-03
   0.326797E-03
   0.326797E-03
   0.326797E-03
   0.106282E-03
   0.106282E-03
   0.106282E-03
   0.351629E-03
   0.351629E-03
   0.351629E-03
   0.329466E-03
   0.329466E-03
   0.329466E-03
   0.880273E-04
   0.880273E-04
   0.880273E-04
   0.292097E-03
   0.292097E-03
   0.292097E-03
   0.467411E-03
   0.467411E-03
   0.467411E-03
   0.460981E-03
   0.460981E-03
   0.460981E-03
   0.286736E-03
   0.286736E-03
   0.286736E-03
   0.726349E-04
   0.726349E-04
   0.726349E-04
   0.101422E-03
   0.101422E-03
   0.101422E-03
   0.178909E-03
   0.178909E-03
   0.178909E-03
   0.256133E-04
   0.256133E-04
   0.256133E-04
   0.260209E-17
   0.260209E-17
   0.260209E-17
   0.208143E-03
   0.208143E-03
   0.208143E-03
   0.697713E-02
   0.697713E-02
   0.697713E-02
   0.129238E-03
   0.129238E-03
   0.129238E-03
   0.122563E-03
   0.122563E-03
   0.122563E-03
   0.696750E-02
   0.696750E-02
   0.696750E-02
   0.131367E-03
   0.131367E-03
   0.131367E-03
   0.557671E-03
   0.557671E-03
   0.557671E-03
   0.547194E-03
   0.547194E-03
   0.547194E-03
   0.120206E-03
   0.120206E-03
   0.120206E-03
   0.174846E-02
   0.174846E-02
   0.174846E-02
   0.163487E-04
   0.163487E-04
   0.163487E-04
   0.439638E-04