# vtk DataFile Version 2.0
This file was created by Fortran
ASCII
DATASET UNSTRUCTURED_GRID
POINTS  2720  DOUBLE
   0.384773E-02   0.103385E+01   0.738517E-01
  -0.338671E-01   0.996494E+00   0.738874E-01
   0.716891E-01   0.104305E+01   0.694595E-01
   0.301950E-01   0.100732E+01   0.543341E-01
  -0.751987E-02   0.969960E+00   0.543698E-01
  -0.437015E-01   0.928701E+00   0.695912E-01
   0.621048E-01   0.983560E+00   0.442000E-01
   0.163510E-01   0.938008E+00   0.442000E-01
  -0.198306E-01   0.896748E+00   0.594214E-01
  -0.486093E-01   0.859984E+00   0.762155E-01
   0.140355E+00   0.104760E+01   0.758206E-01
   0.103599E+00   0.101929E+01   0.593254E-01
   0.513715E-01   0.903278E+00   0.442000E-01
   0.699069E-02   0.863400E+00   0.442000E-01
   0.136838E+00   0.992763E+00   0.442000E-01
   0.971253E-01   0.948830E+00   0.442000E-01
   0.131830E+00   0.910560E+00   0.442000E-01
   0.900483E-01   0.868596E+00   0.442000E-01
  -0.217880E-01   0.826635E+00   0.609941E-01
  -0.460143E-01   0.793296E+00   0.757019E-01
   0.206933E+00   0.104503E+01   0.747818E-01
   0.173594E+00   0.102107E+01   0.606952E-01
   0.206678E+00   0.995567E+00   0.442000E-01
   0.171543E+00   0.954492E+00   0.442000E-01
   0.456675E-01   0.828718E+00   0.442000E-01
   0.359235E-02   0.793444E+00   0.442000E-01
   0.204818E+00   0.920699E+00   0.442000E-01
   0.167459E+00   0.874955E+00   0.442000E-01
   0.125677E+00   0.832991E+00   0.442000E-01
   0.800015E-01   0.795460E+00   0.442000E-01
  -0.206339E-01   0.760105E+00   0.589078E-01
  -0.424026E-01   0.727930E+00   0.710865E-01
   0.272238E+00   0.104160E+01   0.697798E-01
   0.240017E+00   0.101953E+01   0.582866E-01
   0.272956E+00   0.995739E+00   0.456163E-01
   0.239953E+00   0.961774E+00   0.442000E-01
   0.379263E-01   0.760186E+00   0.442000E-01
   0.261191E-02   0.727069E+00   0.456561E-01
   0.200716E+00   0.839516E+00   0.442000E-01
   0.161245E+00   0.799737E+00   0.442000E-01
   0.115570E+00   0.762206E+00   0.442000E-01
   0.680715E-01   0.727205E+00   0.442000E-01
   0.272938E+00   0.932249E+00   0.442000E-01
   0.238075E+00   0.885260E+00   0.442000E-01
   0.337274E+00   0.104038E+01   0.653398E-01
   0.305177E+00   0.101780E+01   0.571095E-01
   0.270673E+00   0.847697E+00   0.442000E-01
   0.234990E+00   0.805201E+00   0.442000E-01
   0.195519E+00   0.765422E+00   0.442000E-01
   0.153377E+00   0.729603E+00   0.442000E-01
  -0.191567E-01   0.694894E+00   0.578348E-01
  -0.410275E-01   0.662875E+00   0.666625E-01
   0.327571E-01   0.694089E+00   0.456561E-01
   0.402348E-02   0.661961E+00   0.473649E-01
   0.338020E+00   0.993848E+00   0.470107E-01
   0.305940E+00   0.966215E+00   0.456163E-01
   0.105878E+00   0.694602E+00   0.442000E-01
   0.605494E-01   0.661256E+00   0.442000E-01
   0.338774E+00   0.938981E+00   0.442000E-01
   0.305535E+00   0.894686E+00   0.442000E-01
   0.268238E+00   0.768705E+00   0.442000E-01
   0.231858E+00   0.732123E+00   0.442000E-01
   0.337796E+00   0.854897E+00   0.442000E-01
   0.303921E+00   0.811201E+00   0.442000E-01
   0.189716E+00   0.696303E+00   0.442000E-01
   0.146209E+00   0.662348E+00   0.442000E-01
  -0.178472E-01   0.629942E+00   0.561926E-01
  -0.409876E-01   0.597759E+00   0.637967E-01
   0.402367E+00   0.104047E+01   0.625644E-01
   0.370117E+00   0.101643E+01   0.552411E-01
   0.318157E-01   0.629128E+00   0.459088E-01
   0.586532E-02   0.597162E+00   0.472505E-01
   0.402822E+00   0.991902E+00   0.465331E-01
   0.370854E+00   0.966614E+00   0.455944E-01
   0.403482E+00   0.940622E+00   0.442000E-01
   0.371035E+00   0.899192E+00   0.442000E-01
   0.100880E+00   0.629002E+00   0.442000E-01
   0.583006E-01   0.596494E+00   0.442000E-01
   0.265991E+00   0.697897E+00   0.442000E-01
   0.228884E+00   0.663746E+00   0.442000E-01
   0.336436E+00   0.771813E+00   0.442000E-01
   0.302371E+00   0.734480E+00   0.442000E-01
   0.185377E+00   0.629791E+00   0.442000E-01
   0.141994E+00   0.596851E+00   0.442000E-01
   0.403196E+00   0.858920E+00   0.442000E-01
   0.370311E+00   0.815508E+00   0.442000E-01
  -0.172751E-01   0.564979E+00   0.548546E-01
  -0.412142E-01   0.532590E+00   0.625431E-01
   0.467497E+00   0.104078E+01   0.613834E-01
   0.435072E+00   0.101594E+01   0.538564E-01
   0.467602E+00   0.991023E+00   0.459111E-01
   0.435450E+00   0.965909E+00   0.451386E-01
   0.335405E+00   0.699182E+00   0.442000E-01
   0.301136E+00   0.664804E+00   0.442000E-01
   0.323502E-01   0.564528E+00   0.455417E-01
   0.680836E-02   0.532389E+00   0.467287E-01
   0.402516E+00   0.774129E+00   0.442000E-01
   0.369470E+00   0.736514E+00   0.442000E-01
   0.264029E+00   0.630653E+00   0.442000E-01
   0.226618E+00   0.597560E+00   0.442000E-01
   0.467824E+00   0.940515E+00   0.442000E-01
   0.435643E+00   0.900351E+00   0.442000E-01
   0.994146E-01   0.564343E+00   0.442000E-01
   0.581805E-01   0.532138E+00   0.442000E-01
   0.467780E+00   0.860351E+00   0.442000E-01
   0.435401E+00   0.817542E+00   0.442000E-01
   0.183235E+00   0.564619E+00   0.442000E-01
   0.140403E+00   0.532204E+00   0.442000E-01
   0.401990E+00   0.700170E+00   0.442000E-01
   0.368863E+00   0.665649E+00   0.442000E-01
   0.334594E+00   0.631271E+00   0.442000E-01
   0.300187E+00   0.598092E+00   0.442000E-01
  -0.171308E-01   0.500000E+00   0.544171E-01
  -0.412142E-01   0.467410E+00   0.625431E-01
   0.532628E+00   0.104075E+01   0.614453E-01
   0.500027E+00   0.101587E+01   0.534381E-01
   0.326387E-01   0.500000E+00   0.453870E-01
   0.680836E-02   0.467611E+00   0.467287E-01
   0.262777E+00   0.564999E+00   0.442000E-01
   0.225469E+00   0.532415E+00   0.442000E-01
   0.532385E+00   0.991074E+00   0.459377E-01
   0.499976E+00   0.965629E+00   0.449725E-01
   0.467586E+00   0.775273E+00   0.442000E-01
   0.435036E+00   0.737785E+00   0.442000E-01
   0.532100E+00   0.940546E+00   0.442000E-01
   0.499960E+00   0.900516E+00   0.442000E-01
   0.991685E-01   0.500000E+00   0.442000E-01
   0.581805E-01   0.467862E+00   0.442000E-01
   0.401641E+00   0.631687E+00   0.442000E-01
   0.368461E+00   0.598453E+00   0.442000E-01
   0.532146E+00   0.860331E+00   0.442000E-01
   0.499965E+00   0.818082E+00   0.442000E-01
   0.182637E+00   0.500000E+00   0.442000E-01
   0.140403E+00   0.467796E+00   0.442000E-01
   0.467427E+00   0.700706E+00   0.442000E-01
   0.434768E+00   0.666208E+00   0.442000E-01
   0.334055E+00   0.565273E+00   0.442000E-01
   0.299666E+00   0.532584E+00   0.442000E-01
   0.532363E+00   0.775253E+00   0.442000E-01
   0.499978E+00   0.738194E+00   0.442000E-01
   0.262359E+00   0.500000E+00   0.442000E-01
   0.225469E+00   0.467585E+00   0.442000E-01
   0.597764E+00   0.104036E+01   0.627329E-01
   0.564986E+00   0.101595E+01   0.539449E-01
  -0.172751E-01   0.435021E+00   0.548546E-01
  -0.409876E-01   0.402241E+00   0.637967E-01
   0.597182E+00   0.992040E+00   0.466006E-01
   0.564509E+00   0.965990E+00   0.451652E-01
   0.323502E-01   0.435472E+00   0.455417E-01
   0.586532E-02   0.402838E+00   0.472505E-01
   0.401433E+00   0.565436E+00   0.442000E-01
   0.368253E+00   0.532689E+00   0.442000E-01
   0.467334E+00   0.631901E+00   0.442000E-01
   0.434612E+00   0.598671E+00   0.442000E-01
   0.994146E-01   0.435657E+00   0.442000E-01
   0.583006E-01   0.403506E+00   0.442000E-01
   0.596463E+00   0.940700E+00   0.442000E-01
   0.564286E+00   0.900361E+00   0.442000E-01
   0.532556E+00   0.700691E+00   0.442000E-01
   0.499993E+00   0.666399E+00   0.442000E-01
   0.333864E+00   0.500000E+00   0.442000E-01
   0.299666E+00   0.467416E+00   0.442000E-01
   0.596754E+00   0.858859E+00   0.442000E-01
   0.564544E+00   0.817502E+00   0.442000E-01
   0.183235E+00   0.435381E+00   0.442000E-01
   0.141994E+00   0.403149E+00   0.442000E-01
   0.597475E+00   0.774072E+00   0.442000E-01
   0.564942E+00   0.737751E+00   0.442000E-01
   0.262777E+00   0.435001E+00   0.442000E-01
   0.226618E+00   0.402440E+00   0.442000E-01
   0.467285E+00   0.565512E+00   0.442000E-01
   0.434540E+00   0.532747E+00   0.442000E-01
   0.662885E+00   0.104022E+01   0.655505E-01
   0.629961E+00   0.101644E+01   0.553886E-01
   0.401360E+00   0.500000E+00   0.442000E-01
   0.368253E+00   0.467311E+00   0.442000E-01
  -0.178472E-01   0.370058E+00   0.561926E-01
  -0.410275E-01   0.337125E+00   0.666625E-01
   0.532687E+00   0.631890E+00   0.442000E-01
   0.500007E+00   0.598743E+00   0.442000E-01
   0.318157E-01   0.370872E+00   0.459088E-01
   0.402348E-02   0.338039E+00   0.473649E-01
   0.662039E+00   0.994055E+00   0.471064E-01
   0.629136E+00   0.966749E+00   0.456354E-01
   0.661229E+00   0.939122E+00   0.442000E-01
   0.628931E+00   0.899198E+00   0.442000E-01
   0.100880E+00   0.370998E+00   0.442000E-01
   0.605494E-01   0.338744E+00   0.442000E-01
   0.598060E+00   0.700123E+00   0.442000E-01
   0.565250E+00   0.666183E+00   0.442000E-01
   0.334055E+00   0.434727E+00   0.442000E-01
   0.300187E+00   0.401908E+00   0.442000E-01
   0.662219E+00   0.854824E+00   0.442000E-01
   0.629686E+00   0.815429E+00   0.442000E-01
   0.185377E+00   0.370209E+00   0.442000E-01
   0.146209E+00   0.337652E+00   0.442000E-01
   0.532762E+00   0.565506E+00   0.442000E-01
   0.500015E+00   0.532765E+00   0.442000E-01
   0.467269E+00   0.500000E+00   0.442000E-01
   0.434540E+00   0.467253E+00   0.442000E-01
   0.663674E+00   0.771718E+00   0.442000E-01
   0.630594E+00   0.736444E+00   0.442000E-01
   0.264029E+00   0.369347E+00   0.442000E-01
   0.228884E+00   0.336254E+00   0.442000E-01
   0.401433E+00   0.434564E+00   0.442000E-01
   0.368461E+00   0.401547E+00   0.442000E-01
   0.598469E+00   0.631650E+00   0.442000E-01
   0.565442E+00   0.598654E+00   0.442000E-01
   0.727983E+00   0.104143E+01   0.699366E-01
   0.694963E+00   0.101784E+01   0.572683E-01
[...]
POINT_DATA  2720
SCALARS  vx_strength  double
LOOKUP_TABLE default
   0.114152E-01
   0.114152E-01
   0.970575E-02
   0.170949E-02
   0.172989E-02
   0.968535E-02
   0.329275E-02
   0.327235E-02
   0.907749E-03
   0.105931E-01
   0.106381E-01
   0.932300E-03
   0.193206E-03
   0.437330E-02
   0.436667E-02
   0.141624E-03
   0.276137E-03
   0.224555E-03
   0.218906E-03
   0.108120E-01
   0.107620E-01
   0.123924E-03
   0.358281E-02
   0.907784E-03
   0.872124E-03
   0.372008E-02
   0.129745E-02
   0.113529E-03
   0.155855E-03
   0.125253E-02
   0.178523E-03
   0.106335E-01
   0.105040E-01
   0.258000E-03
   0.225667E-02
   0.106814E-02
   0.108703E-02
   0.245453E-02
   0.571890E-03
   0.529564E-03
   0.378855E-03
   0.196071E-02
   0.193103E-02
   0.434555E-03
   0.100379E-01
   0.466103E-03
   0.102448E-02
   0.180314E-04
   0.383450E-04
   0.946763E-03
   0.434386E-03
   0.101991E-01
   0.630220E-03
   0.138992E-02
   0.123133E-02
   0.559242E-03
   0.543526E-03
   0.204741E-02
   0.191759E-02
   0.572681E-03
   0.509495E-04
   0.306359E-04
   0.150717E-02
   0.899835E-04
   0.649513E-04
   0.142534E-02
   0.311313E-03
   0.988779E-02
   0.971918E-02
   0.318694E-03
   0.248706E-03
   0.829901E-03
   0.710259E-03
   0.202374E-03
   0.174440E-02
   0.375567E-03
   0.381384E-03
   0.191473E-02
   0.107955E-04
   0.106383E-03
   0.135789E-03
   0.514388E-05
   0.141486E-03
   0.166524E-02
   0.172534E-02
   0.157404E-03
   0.153376E-03
   0.973441E-02
   0.957015E-02
   0.149035E-03
   0.506140E-03
   0.550848E-04
   0.624108E-04
   0.464715E-04
   0.789487E-04
   0.597576E-03
   0.243858E-03
   0.493350E-04
   0.429710E-04
   0.204898E-03
   0.164266E-02
   0.156822E-03
   0.168557E-03
   0.182512E-02
   0.178381E-02
   0.983534E-04
   0.959244E-04
   0.173787E-02
   0.965503E-04
   0.151955E-04
   0.117353E-04
   0.777072E-04
   0.156125E-16
   0.973441E-02
   0.957274E-02
   0.259948E-05
   0.867362E-17
   0.597576E-03
   0.293718E-04
   0.271450E-03
   0.517038E-03
   0.829914E-05
   0.312514E-03
   0.296981E-04
   0.164240E-02
   0.803977E-05
   0.112757E-16
   0.182512E-02
   0.749637E-05
   0.109565E-04
   0.178231E-02
   0.654882E-05
   0.138778E-16
   0.173787E-02
   0.120940E-03
   0.530884E-05
   0.653363E-05
   0.100545E-03
   0.312201E-03
   0.623618E-05
   0.156125E-16
   0.271450E-03
   0.972544E-02
   0.152699E-03
   0.153376E-03
   0.988779E-02
   0.741872E-03
   0.721348E-04
   0.789487E-04
   0.829901E-03
   0.369285E-05
   0.811573E-05
   0.414632E-05
   0.195879E-05
   0.168557E-03
   0.191473E-02
   0.174390E-02
   0.173628E-03
   0.119806E-03
   0.510282E-05
   0.173472E-17
   0.100545E-03
   0.171968E-02
   0.110998E-03
   0.959244E-04
   0.166524E-02
   0.242865E-03
   0.416621E-04
   0.293718E-04
   0.204898E-03
   0.358746E-05
   0.185340E-05
   0.100458E-01
   0.320338E-03
   0.130104E-16
   0.811573E-05
   0.311313E-03
   0.101991E-01
   0.489268E-05
   0.435646E-05
   0.248706E-03
   0.138992E-02
   0.127758E-02
   0.215371E-03
   0.191827E-02
   0.389745E-03
   0.381384E-03
   0.204741E-02
   0.924402E-04
   0.142960E-04
   0.653363E-05
   0.777072E-04
   0.149774E-02
   0.167804E-03
   0.141486E-03
   0.142534E-02
   0.412367E-05
   0.382025E-05
   0.607153E-17
   0.185340E-05
   0.134327E-03
   0.592656E-04
   0.429710E-04
   0.106383E-03
   0.369285E-05
   0.109565E-04
   0.106356E-04
   0.855312E-05
   0.105045E-01
   0.458746E-03
   0.434386E-03
   0.106335E-01
   0.228804E-02
   0.551716E-03
   0.630220E-03
   0.245453E-02
   0.194548E-02
   0.578920E-03
   0.543526E-03
   0.196071E-02
   0.117353E-04
   0.464715E-04
   0.524483E-04
   0.192737E-04
   0.346945E-17
   0.382025E-05
   0.581285E-05
   0.686394E-05
   0.101687E-02
   0.980434E-04
   0.358746E-05
   0.195879E-05
   0.649513E-04
   0.946763E-03
   0.749637E-05
   0.151955E-04
   0.203164E-04
   0.959283E-05
   0.373250E-04
   0.104098E-05
   0.107955E-04
   0.306359E-04
   0.107759E-01
   0.271377E-03
   0.178523E-03
   0.108120E-01
   0.607153E-17
   0.686394E-05
   0.358331E-02
   0.102389E-02
   0.412367E-05
   0.435646E-05
   0.108703E-02
   0.372008E-02
   0.624108E-04
   0.514388E-05
   0.125236E-04
   0.639309E-04
   0.135777E-02
   0.436176E-03
   0.378855E-03
   0.125253E-02
   0.119009E-04
   0.350479E-05
   0.414632E-05
   0.530884E-05
   0.383450E-04
   0.529564E-03
   0.562778E-03
   0.179119E-04
   0.622508E-04
   0.105865E-03
   0.965503E-04
   0.493350E-04
   0.322862E-05
   0.520083E-04
   0.509495E-04
   0.180314E-04
   0.581285E-05
   0.855312E-05
   0.489268E-05
   0.510282E-05
   0.173472E-16
   0.350479E-05
   0.106563E-01
   0.119566E-03
   0.218906E-03
   0.105931E-01
   0.116439E-03
   0.155923E-03
   0.135789E-03
   0.899835E-04
   0.428598E-02
   0.822239E-03
   0.400891E-04
   0.134053E-03
   0.872124E-03
   0.437330E-02
   0.120940E-03
   0.296981E-04
   0.426263E-03
   0.109262E-03
   0.155855E-03
   0.224555E-03
   0.726807E-04
   0.599360E-03
   0.571890E-03
   0.113529E-03
   0.177075E-03
   0.270747E-03
   0.243858E-03
   0.157404E-03
   0.106356E-04
   0.142960E-04
   0.119009E-04
   0.959283E-05
   0.119806E-03
   0.623618E-05
   0.102448E-02
   0.434555E-03
   0.477561E-03
   0.108015E-02
   0.954098E-17
   0.134053E-03
   0.109903E-03
   0.340561E-03
   0.312514E-03
   0.983534E-04
   0.592075E-03
   0.155579E-02
   0.150717E-02
   0.572681E-03
   0.971380E-02
   0.942534E-03
   0.907749E-03
   0.968535E-02
   0.193206E-03
   0.327235E-02
   0.305998E-02
   0.283462E-03
   0.235490E-03
   0.474235E-03
   0.203164E-04
   0.192737E-04
   0.276137E-03
   0.141624E-03
   0.400891E-04
   0.105865E-03
   0.924402E-04
   0.416621E-04
   0.375262E-03
   0.175397E-02
   0.837054E-03
   0.138397E-02
   0.172534E-02
   0.375567E-03
   0.129745E-02
   0.907784E-03
   0.433681E-17
   0.340561E-03
   0.312201E-03
   0.654882E-05
   0.193103E-02
   0.106814E-02
   0.992269E-03
   0.189868E-02
   0.157786E-03
   0.180186E-02
   0.178381E-02
   0.156822E-03
   0.479389E-03
   0.178599E-02
   0.524483E-04
   0.592656E-04
   0.191759E-02
   0.559242E-03
   0.622508E-04
   0.639309E-04
   0.172989E-02
   0.114152E-01
   0.109903E-03
   0.270747E-03
   0.242865E-03
   0.110998E-03
   0.113865E-01
   0.167268E-02
   0.329275E-02
   0.170949E-02
   0.166665E-02
   0.306601E-02
   0.964540E-03
   0.426604E-02
   0.436667E-02
   0.932300E-03
   0.163713E-03
   0.157444E-02
   0.174440E-02
   0.202374E-03
   0.178231E-02
   0.803977E-05
   0.199493E-16
   0.180186E-02
   0.442204E-04
   0.347321E-02
   0.358281E-02
   0.123924E-03
   0.225667E-02
   0.258000E-03
   0.346566E-03
   0.213438E-02
   0.125236E-04
   0.104098E-05
   0.177075E-03
   0.155923E-03
   0.134327E-03
   0.167804E-03
   0.418822E-04
   0.145854E-02
   0.164266E-02
   0.550848E-04
   0.157786E-03
   0.175397E-02
   0.171968E-02
   0.173628E-03
   0.123133E-02
   0.466103E-03
   0.500010E-03
   0.115498E-02
   0.113865E-01
   0.114152E-01
   0.970575E-02
   0.971983E-02
   0.693889E-17
   0.145854E-02
   0.106381E-01
   0.164240E-02
   0.829914E-05
   0.106844E-01
   0.710259E-03
   0.318694E-03
   0.350504E-03
   0.640759E-03
   0.107620E-01
   0.373250E-04
   0.980434E-04
   0.116439E-03
   0.520083E-04
   0.107286E-01
   0.375262E-03
   0.155579E-02
   0.149774E-02
   0.389745E-03
   0.103820E-01
   0.105040E-01
   0.506140E-03
   0.149035E-03
   0.168281E-03
   0.430596E-03
   0.174390E-02
   0.721348E-04
   0.418822E-04
   0.157444E-02
   0.100379E-01
   0.988202E-02
   0.322862E-05
   0.179119E-04
   0.517038E-03
   0.259948E-05
   0.173472E-17
   0.430596E-03
   0.101687E-02
   0.578920E-03
   0.592075E-03
   0.108015E-02
   0.971918E-02
   0.953152E-02
   0.163713E-03
   0.178599E-02
   0.191827E-02
   0.215371E-03
   0.936323E-02
   0.957015E-02
   0.168281E-03
   0.640759E-03
   0.741872E-03
   0.152699E-03
   0.562778E-03
   0.436176E-03
   0.477561E-03
   0.599360E-03
   0.479389E-03
   0.189868E-02
   0.194548E-02
   0.551716E-03
   0.957274E-02
   0.936323E-02
   0.127758E-02
   0.320338E-03
   0.350504E-03
   0.115498E-02
   0.972544E-02
   0.953152E-02
   0.726807E-04
   0.109262E-03
   0.135777E-02
   0.102389E-02
   0.992269E-03
   0.138397E-02
   0.228804E-02
   0.458746E-03
   0.500010E-03
   0.213438E-02
   0.988202E-02
   0.100458E-01
   0.837054E-03
   0.474235E-03
   0.426263E-03
   0.822239E-03
   0.358331E-02
   0.271377E-03
   0.346566E-03
   0.347321E-02
   0.105045E-01
   0.103820E-01
   0.235490E-03
   0.283462E-03
   0.442204E-04
   0.426604E-02
   0.428598E-02
   0.119566E-03
   0.107286E-01
   0.107759E-01
   0.305998E-02
   0.942534E-03
   0.964540E-03
   0.306601E-02
   0.106563E-01
   0.106844E-01
   0.166665E-02
   0.167268E-02
   0.971380E-02
   0.971983E-02
   0.113865E-01
   0.113865E-01
   0.142766E-01
   0.142766E-01
   0.121991E-01
   0.207745E-02
   0.204591E-02
   0.122307E-01
   0.236439E-02
   0.239592E-02
   0.614574E-03
   0.128452E-01
   0.127414E-01
   0.542286E-03
   0.537973E-03
   0.354847E-02
   0.342022E-02
   0.513551E-03
   0.233594E-02
   0.231151E-02
   0.354630E-03
   0.124906E-01
   0.123470E-01
   0.394438E-03
   0.282048E-02
   0.205301E-03
   0.225595E-03
   0.296824E-02
   0.280424E-02
   0.263009E-03
   0.325787E-03
   0.286290E-02
   0.523188E-03
   0.119674E-01
   0.117977E-01
   0.549301E-03
   0.187628E-02
   0.394902E-03
   0.454147E-03
   0.199091E-02
   0.864480E-03
   0.801702E-03
   0.472258E-03
   0.284479E-02
   0.270462E-02
   0.494527E-03
   0.114039E-01
   0.393721E-03
   0.134408E-02
   0.149269E-04
   0.261301E-04
   0.130009E-02
   0.374252E-03
   0.115932E-01
   0.199313E-03
   0.141734E-02
   0.132510E-02
   0.157456E-03
   0.481761E-03
   0.256234E-02
   0.238592E-02
   0.476161E-03
   0.363814E-03
   0.322757E-03
   0.156552E-02
   0.254716E-03
   0.229557E-03
   0.155229E-02
   0.207899E-03
   0.113853E-01
   0.111825E-01
   0.221406E-03
   0.639422E-04
   0.114550E-02
   0.106075E-02
   0.429503E-04
   0.214273E-02
   0.286136E-03
   0.297797E-03
   0.232848E-02
   0.100625E-04
   0.562376E-03
   0.601785E-03
   0.167445E-04
   0.202930E-03
   0.164716E-02
   0.163723E-02
   0.214430E-03
   0.872031E-04
   0.112981E-01
   0.110872E-01
   0.952865E-04
   0.959511E-03
   0.595137E-05
   0.136646E-03
   0.109839E-03
   0.139582E-04
   0.104434E-02
   0.745900E-03
   0.703155E-04
   0.531876E-04
   0.712119E-03
   0.201970E-02
   0.128982E-03
   0.134489E-03
   0.220795E-02
   0.165255E-02
   0.113662E-03
   0.107425E-03
   0.167422E-02
   0.219786E-03
   0.128249E-04
   0.300431E-04
   0.193069E-03
   0.277556E-16
   0.112981E-01
   0.110895E-01
   0.229724E-05
   0.520417E-17
   0.104434E-02
   0.410760E-04
   0.778468E-03
   0.959589E-03
   0.221934E-05
   0.807391E-03
   0.521699E-04
   0.201721E-02
   0.470890E-05
   0.346945E-17
   0.220795E-02
   0.801202E-04
   0.629020E-04
   0.165046E-02
   0.679790E-05
   0.260209E-17
   0.167422E-02
   0.259356E-03
   0.125999E-04
   0.915454E-06
   0.233230E-03
   0.805541E-03
   0.864838E-05
   0.607153E-17
   0.778468E-03
   0.111886E-01
   0.990538E-04
   0.872031E-04
   0.113853E-01
   0.106186E-02
   0.321249E-05
   0.139582E-04
   0.114550E-02
   0.224885E-04
   0.863060E-04
   0.103283E-03
   0.105634E-04
   0.134489E-03
   0.232848E-02
   0.213088E-02
   0.116884E-03
   0.258753E-03
   0.925145E-05
   0.346945E-17
   0.233230E-03
   0.163119E-02
   0.976112E-04
   0.107425E-03
   0.164716E-02
   0.740506E-03
   0.325760E-04
   0.410760E-04
   0.712119E-03
   0.330607E-04
   0.211356E-04
   0.114121E-01
   0.223468E-03
   0.607153E-17
   0.863060E-04
   0.207899E-03
   0.115932E-01
   0.102800E-03
   0.973528E-05
   0.639422E-04
   0.141734E-02
   0.132588E-02
   0.405543E-04
   0.235334E-02
   0.263015E-03
   0.297797E-03
   0.256234E-02
   0.217984E-03
   0.819334E-05
   0.915454E-06
   0.193069E-03
   0.155686E-02
   0.188684E-03
   0.202930E-03
   0.155229E-02
   0.327935E-04
   0.100024E-04
   0.346945E-17
   0.211356E-04
   0.594202E-03
   0.423808E-04
   0.531876E-04
   0.562376E-03
   0.224885E-04
   0.629020E-04
   0.784524E-04
   0.325406E-04
   0.118027E-01
   0.390678E-03
   0.374252E-03
   0.119674E-01
   0.186371E-02
   0.147159E-03
   0.199313E-03
   0.199091E-02
   0.263082E-02
   0.424640E-03
   0.481761E-03
   0.284479E-02
   0.300431E-04
   0.109839E-03
   0.133685E-03
   0.419174E-04
   0.000000E+00
   0.100024E-04
   0.215710E-04
   0.437631E-04
   0.134117E-02
   0.208948E-03
   0.330607E-04
   0.105634E-04
   0.229557E-03
   0.130009E-02
   0.801202E-04
   0.128249E-04
   0.270121E-04
   0.933577E-04
   0.356882E-03
   0.283718E-04
   0.100625E-04
   0.322757E-03
   0.123320E-01
   0.529252E-03
   0.523188E-03
   0.124906E-01
   0.433681E-17
   0.437631E-04
   0.273665E-02
   0.343689E-03
   0.327935E-04
   0.973528E-05
   0.454147E-03
   0.296824E-02
   0.136646E-03
   0.167445E-04
   0.554517E-05
   0.156512E-03
   0.269716E-02
   0.410021E-03
   0.472258E-03
   0.286290E-02
   0.250243E-05
   0.117431E-03
   0.103283E-03
   0.125999E-04
   0.261301E-04
   0.801702E-03
   0.880087E-03
   0.510580E-04
   0.571116E-04
   0.240636E-03
   0.219786E-03
   0.703155E-04
   0.171772E-04
   0.390763E-03
   0.363814E-03
   0.149269E-04
   0.215710E-04
   0.325406E-04
   0.102800E-03
   0.925145E-05
   0.780626E-17
   0.117431E-03
   0.127196E-01
   0.387639E-03
   0.354630E-03
   0.128452E-01
   0.229133E-03
   0.625441E-03
   0.601785E-03
   0.254716E-03
   0.323083E-02
   0.106537E-03
   0.426328E-04
   0.280766E-03
   0.225595E-03
   0.354847E-02
   0.259356E-03
   0.521699E-04
   0.217392E-02
   0.416702E-03
   0.325787E-03
   0.231151E-02
   0.366973E-03
   0.929816E-03
   0.864480E-03
   0.263009E-03
   0.197790E-03
   0.766120E-03
   0.745900E-03
   0.214430E-03
   0.784524E-04
   0.819334E-05
   0.250243E-05
   0.933577E-04
   0.258753E-03
   0.864838E-05
   0.134408E-02
   0.494527E-03
   0.424813E-03
   0.137181E-02
   0.173472E-17
   0.280766E-03
   0.103069E-03
   0.826555E-03
   0.807391E-03
   0.113662E-03
   0.419061E-03
   0.156173E-02
   0.156552E-02
   0.476161E-03
   0.122015E-01
   0.518115E-03
   0.614574E-03
   0.122307E-01
   0.537973E-03
   0.239592E-02
   0.223844E-02
   0.474279E-03
   0.462511E-03
   0.218568E-02
   0.270121E-04
   0.419174E-04
   0.233594E-02
   0.513551E-03
   0.426328E-04
   0.240636E-03
   0.217984E-03
   0.325760E-04
   0.253452E-03
   0.161740E-02
   0.902881E-04
   0.264295E-02
   0.163723E-02
   0.286136E-03
   0.280424E-02
   0.205301E-03
   0.433681E-17
   0.826555E-03
   0.805541E-03
   0.679790E-05
   0.270462E-02
   0.394902E-03
   0.295834E-03
   0.251397E-02
   0.112855E-03
   0.162718E-02
   0.165255E-02
   0.128982E-03
   0.113362E-03
   0.220827E-02
   0.133685E-03
   0.423808E-04
   0.238592E-02
   0.157456E-03
   0.571116E-04
   0.156512E-03
   0.204591E-02
   0.142766E-01
   0.103069E-03
   0.766120E-03
   0.740506E-03
   0.976112E-04
   0.142389E-01
   0.203735E-02
   0.236439E-02
   0.207745E-02
   0.206986E-02
   0.220592E-02
   0.465595E-03
   0.313403E-02
   0.342022E-02
   0.542286E-03
   0.239281E-04
   0.197874E-02
   0.214273E-02
   0.429503E-04
   0.165046E-02
   0.470890E-05
   0.156125E-16
   0.162718E-02
   0.406698E-03
   0.263704E-02
   0.282048E-02
   0.394438E-03
   0.187628E-02
   0.549301E-03
   0.546061E-03
   0.179515E-02
   0.554517E-05
   0.283718E-04
   0.197790E-03
   0.625441E-03
   0.594202E-03
   0.188684E-03
   0.225037E-05
   0.186364E-02
   0.201970E-02
   0.595137E-05
   0.112855E-03
   0.161740E-02
   0.163119E-02
   0.116884E-03
   0.132510E-02
   0.393721E-03
   0.401996E-03
   0.127979E-02
   0.142389E-01
   0.142766E-01
   0.121991E-01
   0.121690E-01
   0.121431E-16
   0.186364E-02
   0.127414E-01
   0.201721E-02
   0.221934E-05
   0.126346E-01
   0.106075E-02
   0.221406E-03
   0.231531E-03
   0.102433E-02
   0.123470E-01
   0.356882E-03
   0.208948E-03
   0.229133E-03
   0.390763E-03
   0.122279E-01
   0.253452E-03
   0.156173E-02
   0.155686E-02
   0.263015E-03
   0.116818E-01
   0.117977E-01
   0.959511E-03
   0.952865E-04
   0.102497E-03
   0.924087E-03
   0.213088E-02
   0.321249E-05
   0.225037E-05
   0.197874E-02
   0.114039E-01
   0.112799E-01
   0.171772E-04
   0.510580E-04
   0.959589E-03
   0.229724E-05
   0.520417E-17
   0.924087E-03
   0.134117E-02
   0.424640E-03
   0.419061E-03
   0.137181E-02
   0.111825E-01
   0.110483E-01
   0.239281E-04
   0.220827E-02
   0.235334E-02
   0.405543E-04
   0.109458E-01
   0.110872E-01
   0.102497E-03
   0.102433E-02
   0.106186E-02
   0.990538E-04
   0.880087E-03
   0.410021E-03
   0.424813E-03
   0.929816E-03
   0.113362E-03
   0.251397E-02
   0.263082E-02
   0.147159E-03
   0.110895E-01
   0.109458E-01
   0.132588E-02
   0.223468E-03
   0.231531E-03
   0.127979E-02
   0.111886E-01
   0.110483E-01
   0.366973E-03
   0.416702E-03
   0.269716E-02
   0.343689E-03
   0.295834E-03
   0.264295E-02
   0.186371E-02
   0.390678E-03
   0.401996E-03
   0.179515E-02
   0.112799E-01
   0.114121E-01
   0.902881E-04
   0.218568E-02
   0.217392E-02
   0.106537E-03
   0.273665E-02
   0.529252E-03
   0.546061E-03
   0.263704E-02
   0.118027E-01
   0.116818E-01
   0.462511E-03
   0.474279E-03
   0.406698E-03
   0.313403E-02
   0.323083E-02
   0.387639E-03
   0.122279E-01
   0.123320E-01
   0.223844E-02
   0.518115E-03
   0.465595E-03
   0.220592E-02
   0.127196E-01
   0.126346E-01
   0.206986E-02
   0.203735E-02
   0.122015E-01
   0.121690E-01
   0.142389E-01
   0.142389E-01
   0.191406E-01
   0.191406E-01
   0.174369E-01
   0.170380E-02
   0.171766E-02
   0.174230E-01
   0.266158E-02
   0.264772E-02
   0.413770E-03
   0.178368E-01
   0.178187E-01
   0.381885E-03
   0.120530E-02
   0.426679E-02
   0.425703E-02
   0.121356E-02
   0.251183E-02
   0.252009E-02
   0.206173E-03
   0.176306E-01
   0.175924E-01
   0.226366E-03
   0.458547E-02
   0.554813E-03
   0.556133E-03
   0.461675E-02
   0.301079E-02
   0.105377E-02
   0.109114E-02
   0.305510E-02
   0.297501E-04
   0.176008E-01
   0.175537E-01
   0.386826E-04
   0.462088E-02
   0.740927E-04
   0.685593E-04
   0.465556E-02
   0.153384E-02
   0.149647E-02
   0.196358E-03
   0.318289E-02
   0.312395E-02
   0.187254E-03
   0.175420E-01
   0.116910E-04
   0.183938E-02
   0.492792E-03
   0.515071E-03
   0.181518E-02
   0.697245E-05
   0.175939E-01
   0.215230E-05
   0.464643E-02
   0.460959E-02
   0.400267E-06
   0.192105E-04
   0.316584E-02
   0.310510E-02
   0.184502E-04
   0.729155E-03
   0.706877E-03
   0.202145E-02
   0.163622E-03
   0.176161E-03
   0.201056E-02
   0.206523E-04
   0.176145E-01
   0.175593E-01
   0.173076E-04
   0.227227E-04
   0.464436E-02
   0.460397E-02
   0.229304E-04
   0.306911E-02
   0.589155E-04
   0.615121E-04
   0.312705E-02
   0.321607E-03
   0.852323E-03
   0.871933E-03
   0.306400E-03
   0.465465E-04
   0.211861E-02