# vtk DataFile Version 2.0
This file was created by Fortran
ASCII
DATASET UNSTRUCTURED_GRID
POINTS  4352  DOUBLE
   0.119644E-01   0.101888E+01   0.602686E-01
  -0.182431E-01   0.988372E+00   0.604139E-01
   0.753365E-01   0.101808E+01   0.573218E-01
   0.433362E-01   0.987481E+00   0.505005E-01
   0.131287E-01   0.956972E+00   0.506458E-01
  -0.169589E-01   0.924858E+00   0.576918E-01
   0.709168E-01   0.960360E+00   0.442000E-01
   0.400262E-01   0.929369E+00   0.442000E-01
   0.993856E-02   0.897256E+00   0.512460E-01
  -0.233479E-01   0.861612E+00   0.550294E-01
   0.138546E+00   0.102495E+01   0.544253E-01
   0.102917E+00   0.990964E+00   0.510213E-01
   0.651902E-01   0.904075E+00   0.442000E-01
   0.365916E-01   0.867655E+00   0.442000E-01
   0.132558E+00   0.963753E+00   0.442000E-01
   0.960808E-01   0.935065E+00   0.442000E-01
   0.127214E+00   0.905712E+00   0.442000E-01
   0.942503E-01   0.872927E+00   0.442000E-01
   0.330512E-02   0.832011E+00   0.479835E-01
  -0.361334E-01   0.796390E+00   0.515927E-01
   0.203847E+00   0.103721E+01   0.514832E-01
   0.168186E+00   0.997735E+00   0.476040E-01
   0.199890E+00   0.967285E+00   0.442000E-01
   0.163691E+00   0.934400E+00   0.442000E-01
   0.656516E-01   0.836507E+00   0.442000E-01
   0.330350E-01   0.800373E+00   0.442000E-01
   0.197147E+00   0.901648E+00   0.442000E-01
   0.162934E+00   0.869927E+00   0.442000E-01
   0.129969E+00   0.837142E+00   0.442000E-01
   0.982481E-01   0.803046E+00   0.442000E-01
  -0.640353E-02   0.764752E+00   0.478092E-01
  -0.493336E-01   0.729984E+00   0.561881E-01
   0.270314E+00   0.104877E+01   0.570585E-01
   0.235550E+00   0.100676E+01   0.480792E-01
   0.268043E+00   0.976221E+00   0.442000E-01
   0.233346E+00   0.934533E+00   0.442000E-01
   0.656315E-01   0.766912E+00   0.442000E-01
   0.242210E-01   0.732319E+00   0.442000E-01
   0.198601E+00   0.834342E+00   0.442000E-01
   0.165671E+00   0.801406E+00   0.442000E-01
   0.133949E+00   0.767309E+00   0.442000E-01
   0.100294E+00   0.734026E+00   0.442000E-01
   0.266284E+00   0.900194E+00   0.442000E-01
   0.232814E+00   0.866064E+00   0.442000E-01
   0.336814E+00   0.105397E+01   0.673764E-01
   0.302807E+00   0.101823E+01   0.531793E-01
   0.266512E+00   0.832156E+00   0.442000E-01
   0.233625E+00   0.799333E+00   0.442000E-01
   0.200695E+00   0.766397E+00   0.442000E-01
   0.168269E+00   0.733602E+00   0.442000E-01
  -0.187091E-01   0.697550E+00   0.525789E-01
  -0.560413E-01   0.663394E+00   0.671028E-01
   0.588831E-01   0.699434E+00   0.442000E-01
   0.962042E-02   0.664940E+00   0.442000E-01
   0.335404E+00   0.990375E+00   0.440926E-01
   0.300981E+00   0.941881E+00   0.442000E-01
   0.134613E+00   0.700319E+00   0.442000E-01
   0.963447E-01   0.666898E+00   0.442000E-01
   0.333550E+00   0.905230E+00   0.442000E-01
   0.299981E+00   0.866285E+00   0.442000E-01
   0.267347E+00   0.765398E+00   0.442000E-01
   0.234726E+00   0.732668E+00   0.442000E-01
   0.333164E+00   0.831747E+00   0.442000E-01
   0.300233E+00   0.798220E+00   0.442000E-01
   0.202300E+00   0.699873E+00   0.442000E-01
   0.169720E+00   0.667087E+00   0.442000E-01
  -0.277119E-01   0.630784E+00   0.587240E-01
  -0.549565E-01   0.597500E+00   0.757464E-01
   0.402556E+00   0.105219E+01   0.742844E-01
   0.369411E+00   0.102611E+01   0.582897E-01
   0.470820E-01   0.632404E+00   0.442000E-01
  -0.396021E-02   0.598310E+00   0.442000E-01
   0.401869E+00   0.100249E+01   0.430119E-01
   0.367972E+00   0.953724E+00   0.440926E-01
   0.400426E+00   0.914527E+00   0.442000E-01
   0.366733E+00   0.870692E+00   0.442000E-01
   0.131452E+00   0.633666E+00   0.442000E-01
   0.876479E-01   0.599976E+00   0.442000E-01
   0.268296E+00   0.699114E+00   0.442000E-01
   0.235956E+00   0.666327E+00   0.442000E-01
   0.333726E+00   0.764565E+00   0.442000E-01
   0.300916E+00   0.731844E+00   0.442000E-01
   0.203377E+00   0.633541E+00   0.442000E-01
   0.169774E+00   0.600499E+00   0.442000E-01
   0.399794E+00   0.832968E+00   0.442000E-01
   0.366657E+00   0.798092E+00   0.442000E-01
  -0.312049E-01   0.565025E+00   0.602890E-01
  -0.519550E-01   0.532404E+00   0.785370E-01
   0.467587E+00   0.104918E+01   0.760105E-01
   0.435014E+00   0.102857E+01   0.590065E-01
   0.467431E+00   0.100791E+01   0.418343E-01
   0.434323E+00   0.963292E+00   0.442000E-01
   0.334362E+00   0.698472E+00   0.442000E-01
   0.301631E+00   0.665649E+00   0.442000E-01
   0.366057E-01   0.565882E+00   0.442000E-01
  -0.108029E-01   0.532622E+00   0.442000E-01
   0.400142E+00   0.764025E+00   0.442000E-01
   0.367171E+00   0.731193E+00   0.442000E-01
   0.269291E+00   0.632862E+00   0.442000E-01
   0.237089E+00   0.599942E+00   0.442000E-01
   0.466928E+00   0.921830E+00   0.442000E-01
   0.433487E+00   0.876803E+00   0.442000E-01
   0.125970E+00   0.566810E+00   0.442000E-01
   0.801558E-01   0.533260E+00   0.442000E-01
   0.466608E+00   0.834549E+00   0.442000E-01
   0.433279E+00   0.798901E+00   0.442000E-01
   0.203486E+00   0.566900E+00   0.442000E-01
   0.169021E+00   0.533549E+00   0.442000E-01
   0.400568E+00   0.697994E+00   0.442000E-01
   0.367653E+00   0.665160E+00   0.442000E-01
   0.334922E+00   0.632337E+00   0.442000E-01
   0.302268E+00   0.599420E+00   0.442000E-01
  -0.315531E-01   0.500000E+00   0.603043E-01
  -0.519550E-01   0.467596E+00   0.785370E-01
   0.532389E+00   0.104924E+01   0.759207E-01
   0.500003E+00   0.102851E+01   0.588383E-01
   0.327472E-01   0.500000E+00   0.442000E-01
  -0.108029E-01   0.467378E+00   0.442000E-01
   0.270065E+00   0.566500E+00   0.442000E-01
   0.237749E+00   0.533351E+00   0.442000E-01
   0.532604E+00   0.100774E+01   0.418682E-01
   0.500036E+00   0.966448E+00   0.442000E-01
   0.466702E+00   0.763836E+00   0.442000E-01
   0.433539E+00   0.730826E+00   0.442000E-01
   0.533163E+00   0.921727E+00   0.442000E-01
   0.500049E+00   0.879576E+00   0.442000E-01
   0.123207E+00   0.500000E+00   0.442000E-01
   0.801558E-01   0.466740E+00   0.442000E-01
   0.400879E+00   0.632008E+00   0.442000E-01
   0.368007E+00   0.599102E+00   0.442000E-01
   0.533466E+00   0.834616E+00   0.442000E-01
   0.500031E+00   0.799484E+00   0.442000E-01
   0.203284E+00   0.500000E+00   0.442000E-01
   0.169021E+00   0.466451E+00   0.442000E-01
   0.466846E+00   0.697740E+00   0.442000E-01
   0.433794E+00   0.664842E+00   0.442000E-01
   0.335352E+00   0.566185E+00   0.442000E-01
   0.302662E+00   0.533150E+00   0.442000E-01
   0.533328E+00   0.763881E+00   0.442000E-01
   0.500008E+00   0.730751E+00   0.442000E-01
   0.270346E+00   0.500000E+00   0.442000E-01
   0.237749E+00   0.466649E+00   0.442000E-01
   0.597413E+00   0.105225E+01   0.740432E-01
   0.564990E+00   0.102847E+01   0.589506E-01
  -0.312049E-01   0.434975E+00   0.602890E-01
  -0.549565E-01   0.402500E+00   0.757464E-01
   0.598144E+00   0.100207E+01   0.431005E-01
   0.565731E+00   0.963024E+00   0.442000E-01
   0.366057E-01   0.434118E+00   0.442000E-01
  -0.396021E-02   0.401690E+00   0.442000E-01
   0.401088E+00   0.566011E+00   0.442000E-01
   0.368206E+00   0.533036E+00   0.442000E-01
   0.466944E+00   0.631845E+00   0.442000E-01
   0.433960E+00   0.598916E+00   0.442000E-01
   0.125970E+00   0.433190E+00   0.442000E-01
   0.876479E-01   0.400024E+00   0.442000E-01
   0.599605E+00   0.914379E+00   0.442000E-01
   0.566579E+00   0.876768E+00   0.442000E-01
   0.533159E+00   0.697763E+00   0.442000E-01
   0.499996E+00   0.664744E+00   0.442000E-01
   0.335515E+00   0.500000E+00   0.442000E-01
   0.302662E+00   0.466850E+00   0.442000E-01
   0.600230E+00   0.833143E+00   0.442000E-01
   0.566762E+00   0.799014E+00   0.442000E-01
   0.203486E+00   0.433100E+00   0.442000E-01
   0.169774E+00   0.399501E+00   0.442000E-01
   0.599878E+00   0.764129E+00   0.442000E-01
   0.566478E+00   0.730893E+00   0.442000E-01
   0.270065E+00   0.433500E+00   0.442000E-01
   0.237089E+00   0.400058E+00   0.442000E-01
   0.467005E+00   0.565933E+00   0.442000E-01
   0.434044E+00   0.532975E+00   0.442000E-01
   0.663113E+00   0.105384E+01   0.671451E-01
   0.630567E+00   0.102585E+01   0.581931E-01
   0.401162E+00   0.500000E+00   0.442000E-01
   0.368206E+00   0.466964E+00   0.442000E-01
  -0.277119E-01   0.369216E+00   0.587240E-01
  -0.560413E-01   0.336606E+00   0.671028E-01
   0.533052E+00   0.631859E+00   0.442000E-01
   0.499990E+00   0.598861E+00   0.442000E-01
   0.470820E-01   0.367596E+00   0.442000E-01
   0.962042E-02   0.335060E+00   0.442000E-01
   0.664543E+00   0.989890E+00   0.441473E-01
   0.632018E+00   0.953422E+00   0.441473E-01
   0.666389E+00   0.905164E+00   0.442000E-01
   0.633255E+00   0.870753E+00   0.442000E-01
   0.131452E+00   0.366334E+00   0.442000E-01
   0.963447E-01   0.333102E+00   0.442000E-01
   0.599465E+00   0.698047E+00   0.442000E-01
   0.566215E+00   0.664878E+00   0.442000E-01
   0.335352E+00   0.433815E+00   0.442000E-01
   0.302268E+00   0.400580E+00   0.442000E-01
   0.666805E+00   0.831915E+00   0.442000E-01
   0.633346E+00   0.798258E+00   0.442000E-01
   0.203377E+00   0.366459E+00   0.442000E-01
   0.169720E+00   0.332913E+00   0.442000E-01
   0.532991E+00   0.565939E+00   0.442000E-01
   0.499988E+00   0.532958E+00   0.442000E-01
   0.467026E+00   0.500000E+00   0.442000E-01
   0.434044E+00   0.467025E+00   0.442000E-01
   0.666298E+00   0.764658E+00   0.442000E-01
   0.632865E+00   0.731283E+00   0.442000E-01
   0.269291E+00   0.367138E+00   0.442000E-01
   0.235956E+00   0.333673E+00   0.442000E-01
   0.401088E+00   0.433989E+00   0.442000E-01
   0.368007E+00   0.400898E+00   0.442000E-01
   0.599189E+00   0.632040E+00   0.442000E-01
   0.566053E+00   0.598937E+00   0.442000E-01
   0.729507E+00   0.104864E+01   0.569603E-01
   0.697089E+00   0.101788E+01   0.530994E-01
[...]
POINT_DATA  4352
SCALARS  vx_strength  double
LOOKUP_TABLE default
   0.911028E-02
   0.911028E-02
   0.866026E-02
   0.450014E-03
   0.482554E-03
   0.862772E-02
   0.756693E-04
   0.108210E-03
   0.142023E-03
   0.848570E-02
   0.852280E-02
   0.137464E-03
   0.242356E-03
   0.787738E-05
   0.216506E-07
   0.213111E-03
   0.312138E-03
   0.282894E-03
   0.599949E-03
   0.788575E-02
   0.795708E-02
   0.565720E-03
   0.347443E-03
   0.913185E-03
   0.938887E-03
   0.331060E-03
   0.152455E-03
   0.448591E-03
   0.448020E-03
   0.207972E-03
   0.219061E-03
   0.766669E-02
   0.783937E-02
   0.117710E-03
   0.103498E-02
   0.805248E-03
   0.867049E-03
   0.979048E-03
   0.355664E-03
   0.356235E-03
   0.372226E-03
   0.702795E-03
   0.586134E-03
   0.371568E-03
   0.857631E-02
   0.736937E-03
   0.218766E-03
   0.234670E-03
   0.212939E-03
   0.196948E-03
   0.747317E-03
   0.841401E-02
   0.634667E-03
   0.236103E-02
   0.224260E-02
   0.470683E-03
   0.719322E-03
   0.618141E-03
   0.395873E-03
   0.660944E-03
   0.403561E-04
   0.620867E-04
   0.482703E-04
   0.393908E-03
   0.386748E-03
   0.135625E-03
   0.858914E-03
   0.927292E-02
   0.930091E-02
   0.724603E-03
   0.507748E-04
   0.327072E-02
   0.288459E-02
   0.826122E-04
   0.267976E-03
   0.581237E-03
   0.706958E-03
   0.380423E-04
   0.185788E-03
   0.138874E-03
   0.152507E-03
   0.201045E-03
   0.416330E-03
   0.426253E-03
   0.233062E-03
   0.396445E-03
   0.391783E-03
   0.966470E-02
   0.957707E-02
   0.276157E-03
   0.287755E-02
   0.283200E-03
   0.677663E-04
   0.830234E-04
   0.243948E-03
   0.341856E-02
   0.360151E-03
   0.188801E-03
   0.175616E-03
   0.379588E-03
   0.846293E-03
   0.295117E-03
   0.403499E-03
   0.685490E-03
   0.279018E-03
   0.249162E-03
   0.279994E-03
   0.549759E-03
   0.319748E-04
   0.890602E-04
   0.701109E-04
   0.224815E-04
   0.121431E-16
   0.966470E-02
   0.957261E-02
   0.446025E-05
   0.130104E-16
   0.341856E-02
   0.119202E-03
   0.540379E-03
   0.286396E-02
   0.912727E-05
   0.485458E-03
   0.123855E-03
   0.838808E-03
   0.166121E-04
   0.216840E-16
   0.685490E-03
   0.354276E-05
   0.154065E-04
   0.266380E-03
   0.397428E-05
   0.112757E-16
   0.549759E-03
   0.857380E-04
   0.700917E-04
   0.579547E-04
   0.837288E-04
   0.479078E-03
   0.240517E-05
   0.607153E-17
   0.540379E-03
   0.929467E-02
   0.277937E-03
   0.391783E-03
   0.927292E-02
   0.284266E-02
   0.256640E-03
   0.243948E-03
   0.327072E-02
   0.214134E-04
   0.211348E-04
   0.386806E-04
   0.349539E-04
   0.403499E-03
   0.380423E-04
   0.270188E-03
   0.311981E-03
   0.824440E-04
   0.569919E-05
   0.104083E-16
   0.837288E-04
   0.204676E-03
   0.250278E-03
   0.279994E-03
   0.426253E-03
   0.347227E-03
   0.118426E-03
   0.119202E-03
   0.379588E-03
   0.760826E-05
   0.211487E-04
   0.859065E-02
   0.704023E-03
   0.182146E-16
   0.211348E-04
   0.858914E-03
   0.841401E-02
   0.361155E-04
   0.826434E-05
   0.507748E-04
   0.236103E-02
   0.220260E-02
   0.639621E-04
   0.362589E-03
   0.568814E-03
   0.706958E-03
   0.618141E-03
   0.223743E-04
   0.583564E-04
   0.579547E-04
   0.224815E-04
   0.252467E-04
   0.389385E-03
   0.416330E-03
   0.135625E-03
   0.902424E-05
   0.968032E-05
   0.954098E-17
   0.211487E-04
   0.137500E-03
   0.179658E-03
   0.175616E-03
   0.138874E-03
   0.214134E-04
   0.154065E-04
   0.386409E-05
   0.183768E-04
   0.788484E-02
   0.705812E-03
   0.747317E-03
   0.766669E-02
   0.104550E-02
   0.451291E-03
   0.634667E-03
   0.979048E-03
   0.550711E-03
   0.639413E-03
   0.719322E-03
   0.702795E-03
   0.701109E-04
   0.830234E-04
   0.821567E-04
   0.751272E-04
   0.260209E-17
   0.968032E-05
   0.254437E-04
   0.195737E-05
   0.223007E-03
   0.391160E-03
   0.760826E-05
   0.349539E-04
   0.386748E-03
   0.196948E-03
   0.354276E-05
   0.890602E-04
   0.812886E-04
   0.229738E-05
   0.573707E-04
   0.196289E-03
   0.185788E-03
   0.620867E-04
   0.799552E-02
   0.110681E-03
   0.219061E-03
   0.788575E-02
   0.000000E+00
   0.195737E-05
   0.377008E-03
   0.779173E-03
   0.902424E-05
   0.826434E-05
   0.867049E-03
   0.331060E-03
   0.677663E-04
   0.201045E-03
   0.198245E-03
   0.802000E-04
   0.148654E-03
   0.377116E-03
   0.372226E-03
   0.207972E-03
   0.635328E-04
   0.403865E-04
   0.386806E-04
   0.700917E-04
   0.212939E-03
   0.356235E-03
   0.371258E-03
   0.228864E-03
   0.178927E-03
   0.174385E-04
   0.319748E-04
   0.188801E-03
   0.239731E-03
   0.465031E-04
   0.403561E-04
   0.234670E-03
   0.254437E-04
   0.183768E-04
   0.361155E-04
   0.569919E-05
   0.147451E-16
   0.403865E-04
   0.854744E-02
   0.551929E-03
   0.599949E-03
   0.848570E-02
   0.382776E-03
   0.138028E-03
   0.152507E-03
   0.393908E-03
   0.346092E-04
   0.894327E-03
   0.115480E-03
   0.693858E-04
   0.938887E-03
   0.787738E-05
   0.857380E-04
   0.123855E-03
   0.267614E-03
   0.478060E-03
   0.448020E-03
   0.282894E-03
   0.484128E-03
   0.365190E-03
   0.355664E-03
   0.448591E-03
   0.363538E-03
   0.322639E-03
   0.360151E-03
   0.396445E-03
   0.386409E-05
   0.583564E-04
   0.635328E-04
   0.229738E-05
   0.824440E-04
   0.240517E-05
   0.218766E-03
   0.371568E-03
   0.369905E-03
   0.235017E-03
   0.121431E-16
   0.693858E-04
   0.222735E-03
   0.429894E-03
   0.485458E-03
   0.249162E-03
   0.588068E-03
   0.297250E-04
   0.482703E-04
   0.660944E-03
   0.859100E-02
   0.435561E-04
   0.142023E-03
   0.862772E-02
   0.242356E-03
   0.108210E-03
   0.127126E-03
   0.205291E-03
   0.225622E-03
   0.247283E-03
   0.812886E-04
   0.751272E-04
   0.312138E-03
   0.213111E-03
   0.115480E-03
   0.174385E-04
   0.223743E-04
   0.118426E-03
   0.481579E-03
   0.883153E-04
   0.863069E-03
   0.131657E-03
   0.233062E-03
   0.581237E-03
   0.152455E-03
   0.913185E-03
   0.112757E-16
   0.429894E-03
   0.479078E-03
   0.397428E-05
   0.586134E-03
   0.805248E-03
   0.716619E-03
   0.478372E-03
   0.238357E-03
   0.103938E-03
   0.279018E-03
   0.295117E-03
   0.328512E-03
   0.218815E-03
   0.821567E-04
   0.179658E-03
   0.395873E-03
   0.470683E-03
   0.178927E-03
   0.802000E-04
   0.482554E-03
   0.911028E-02
   0.222735E-03
   0.322639E-03
   0.347227E-03
   0.250278E-03
   0.889785E-02
   0.306848E-03
   0.756693E-04
   0.450014E-03
   0.330237E-03
   0.150516E-03
   0.726129E-04
   0.249347E-05
   0.216506E-07
   0.137464E-03
   0.158049E-03
   0.420813E-03
   0.267976E-03
   0.826122E-04
   0.266380E-03
   0.166121E-04
   0.954098E-17
   0.103938E-03
   0.494024E-03
   0.371538E-03
   0.347443E-03
   0.565720E-03
   0.103498E-02
   0.117710E-03
   0.439626E-05
   0.109255E-02
   0.198245E-03
   0.196289E-03
   0.363538E-03
   0.138028E-03
   0.137500E-03
   0.389385E-03
   0.283539E-03
   0.942709E-03
   0.846293E-03
   0.283200E-03
   0.238357E-03
   0.883153E-04
   0.204676E-03
   0.311981E-03
   0.224260E-02
   0.736937E-03
   0.679851E-03
   0.210092E-02
   0.889785E-02
   0.911028E-02
   0.866026E-02
   0.856761E-02
   0.121431E-16
   0.942709E-03
   0.852280E-02
   0.838808E-03
   0.912727E-05
   0.849500E-02
   0.288459E-02
   0.724603E-03
   0.589206E-03
   0.253207E-02
   0.795708E-02
   0.573707E-04
   0.391160E-03
   0.382776E-03
   0.465031E-04
   0.800097E-02
   0.481579E-03
   0.297250E-04
   0.252467E-04
   0.568814E-03
   0.800537E-02
   0.783937E-02
   0.287755E-02
   0.276157E-03
   0.199661E-03
   0.244819E-02
   0.270188E-03
   0.256640E-03
   0.283539E-03
   0.420813E-03
   0.857631E-02
   0.868522E-02
   0.239731E-03
   0.228864E-03
   0.286396E-02
   0.446025E-05
   0.520417E-17
   0.244819E-02
   0.223007E-03
   0.639413E-03
   0.588068E-03
   0.235017E-03
   0.930091E-02
   0.927443E-02
   0.158049E-03
   0.218815E-03
   0.362589E-03
   0.639621E-04
   0.947409E-02
   0.957707E-02
   0.199661E-03
   0.253207E-02
   0.284266E-02
   0.277937E-03
   0.371258E-03
   0.377116E-03
   0.369905E-03
   0.365190E-03
   0.328512E-03
   0.478372E-03
   0.550711E-03
   0.451291E-03
   0.957261E-02
   0.947409E-02
   0.220260E-02
   0.704023E-03
   0.589206E-03
   0.210092E-02
   0.929467E-02
   0.927443E-02
   0.484128E-03
   0.478060E-03
   0.148654E-03
   0.779173E-03
   0.716619E-03
   0.131657E-03
   0.104550E-02
   0.705812E-03
   0.679851E-03
   0.109255E-02
   0.868522E-02
   0.859065E-02
   0.863069E-03
   0.247283E-03
   0.267614E-03
   0.894327E-03
   0.377008E-03
   0.110681E-03
   0.439626E-05
   0.371538E-03
   0.788484E-02
   0.800537E-02
   0.225622E-03
   0.205291E-03
   0.494024E-03
   0.249347E-05
   0.346092E-04
   0.551929E-03
   0.800097E-02
   0.799552E-02
   0.127126E-03
   0.435561E-04
   0.726129E-04
   0.150516E-03
   0.854744E-02
   0.849500E-02
   0.330237E-03
   0.306848E-03
   0.859100E-02
   0.856761E-02
   0.889785E-02
   0.889785E-02
   0.875007E-02
   0.875007E-02
   0.803189E-02
   0.718189E-03
   0.685014E-03
   0.806506E-02
   0.350081E-03
   0.383256E-03
   0.596486E-03
   0.866155E-02
   0.863766E-02
   0.605771E-03
   0.196751E-03
   0.782991E-03
   0.771947E-03
   0.183905E-03
   0.632592E-04
   0.504132E-04
   0.959111E-04
   0.856563E-02
   0.857948E-02
   0.581770E-04
   0.135509E-02
   0.641316E-03
   0.637641E-03
   0.132472E-02
   0.132679E-03
   0.571896E-03
   0.582335E-03
   0.105719E-03
   0.560075E-03
   0.912571E-02
   0.911144E-02
   0.531959E-03
   0.233906E-02
   0.452012E-03
   0.531992E-03
   0.241679E-02
   0.347305E-03
   0.336866E-03
   0.456652E-03
   0.181059E-03
   0.140795E-03
   0.443896E-03
   0.954816E-02
   0.436718E-03
   0.155608E-03
   0.252199E-03
   0.255246E-03
   0.135460E-03
   0.521466E-03
   0.964718E-02
   0.192178E-03
   0.274608E-02
   0.250216E-02
   0.273614E-03
   0.328388E-03
   0.339507E-03
   0.422173E-03
   0.289354E-03
   0.150025E-03
   0.146978E-03
   0.160276E-03
   0.294021E-03
   0.299099E-03
   0.106172E-03
   0.119228E-03
   0.976640E-02
   0.959401E-02
   0.458557E-04
   0.534861E-03
   0.233044E-02
   0.200771E-02
   0.540310E-03
   0.102335E-02
   0.608665E-04
   0.111061E-03
   0.985429E-03
   0.125853E-03
   0.262679E-04
   0.181069E-04
   0.125889E-03
   0.281701E-03
   0.276812E-03
   0.368153E-03
   0.268744E-03
   0.329343E-04
   0.973347E-02
   0.953632E-02
   0.576955E-04
   0.165020E-02
   0.299811E-03
   0.136846E-04
   0.136488E-04
   0.331332E-03
   0.196618E-02
   0.130500E-03
   0.156351E-03
   0.160064E-03
   0.147905E-03
   0.125024E-02
   0.729227E-04
   0.478413E-04
   0.126892E-02
   0.582932E-03
   0.141856E-03
   0.154004E-03
   0.478657E-03
   0.111099E-03
   0.589369E-04
   0.578349E-04
   0.115878E-03
   0.260209E-16
   0.973347E-02
   0.953431E-02
   0.200931E-05
   0.867362E-18
   0.196618E-02
   0.936397E-04
   0.208269E-03
   0.165908E-02
   0.108855E-04
   0.181997E-03
   0.903597E-04
   0.124368E-02
   0.432738E-05
   0.260209E-17
   0.126892E-02
   0.124892E-04
   0.113872E-04
   0.580163E-03
   0.155772E-05
   0.173472E-17
   0.478657E-03
   0.157756E-03
   0.437024E-04
   0.417762E-04
   0.167742E-03
   0.180163E-03
   0.339197E-05
   0.693889E-17
   0.208269E-03
   0.958613E-02
   0.518199E-04
   0.329343E-04
   0.976640E-02
   0.203075E-02
   0.319848E-03
   0.331332E-03
   0.233044E-02
   0.448944E-05
   0.486739E-04
   0.489089E-04
   0.728264E-05
   0.478413E-04
   0.985429E-03
   0.100572E-02
   0.818845E-04
   0.157116E-03
   0.403219E-05
   0.607153E-17
   0.167742E-03
   0.364730E-03
   0.133549E-03
   0.154004E-03
   0.276812E-03
   0.127799E-03
   0.811844E-04
   0.936397E-04
   0.147905E-03
   0.138214E-04
   0.110282E-04
   0.953267E-02
   0.534528E-04
   0.867362E-18
   0.486739E-04
   0.119228E-03
   0.964718E-02
   0.491774E-04
   0.376370E-05
   0.534861E-03
   0.274608E-02
   0.252970E-02
   0.552409E-03
   0.407458E-03
   0.458488E-04
   0.111061E-03
   0.339507E-03
   0.110798E-03
   0.348669E-04
   0.417762E-04
   0.115878E-03
   0.160120E-03
   0.250458E-03
   0.281701E-03
   0.106172E-03
   0.141123E-04
   0.347279E-05
   0.173472E-17
   0.110282E-04
   0.200040E-04
   0.142664E-03
   0.160064E-03
   0.262679E-04
   0.448944E-05
   0.113872E-04
   0.142126E-04
   0.979149E-07
   0.908747E-02
   0.445207E-03
   0.521466E-03
   0.912571E-02
   0.237792E-02
   0.293425E-03
   0.192178E-03
   0.241679E-02
   0.142059E-03
   0.256092E-03
   0.328388E-03
   0.181059E-03
   0.578349E-04
   0.136488E-04
   0.182757E-04
   0.501412E-04
   0.130104E-16
   0.347279E-05
   0.299267E-05
   0.172028E-04
   0.148211E-03
   0.268000E-03
   0.138214E-04
   0.728264E-05
   0.299099E-03
   0.135460E-03
   0.124892E-04
   0.589369E-04
   0.516643E-04
   0.157357E-04
   0.138986E-03
   0.109010E-03
   0.125853E-03
   0.146978E-03
   0.852394E-02
   0.563529E-03
   0.560075E-03
   0.856563E-02
   0.260209E-16
   0.172028E-04
   0.142272E-02
   0.391668E-03
   0.141123E-04
   0.376370E-05
   0.531992E-03
   0.132472E-02
   0.136846E-04
   0.125889E-03
   0.110333E-03
   0.195990E-04
   0.154272E-03
   0.403881E-03
   0.456652E-03
   0.105719E-03
   0.372746E-04
   0.500176E-04
   0.489089E-04
   0.437024E-04
   0.255246E-03
   0.336866E-03
   0.316321E-03
   0.235771E-03
   0.140646E-03
   0.108581E-03
   0.111099E-03
   0.156351E-03
   0.231223E-03
   0.143534E-03
   0.150025E-03
   0.252199E-03
   0.299267E-05
   0.979149E-07
   0.491774E-04
   0.403219E-05
   0.346945E-17
   0.500176E-04
   0.847319E-02
   0.507466E-04
   0.959111E-04
   0.866155E-02
   0.266047E-03
   0.121790E-04
   0.181069E-04
   0.294021E-03
   0.834489E-03
   0.537487E-03
   0.793047E-04
   0.150611E-03
   0.637641E-03
   0.782991E-03
   0.157756E-03
   0.903597E-04
   0.125938E-03
   0.509153E-03
   0.582335E-03
   0.504132E-04
   0.495851E-03
   0.329624E-03
   0.347305E-03
   0.571896E-03
   0.241783E-03
   0.113316E-03
   0.130500E-03
   0.268744E-03
   0.142126E-04
   0.348669E-04
   0.372746E-04
   0.157357E-04
   0.157116E-03
   0.339197E-05
   0.155608E-03
   0.443896E-03
   0.395508E-03
   0.165339E-03
   0.000000E+00
   0.150611E-03
   0.124748E-03
   0.158759E-03
   0.181997E-03
   0.141856E-03
   0.224096E-03
   0.207290E-03
   0.160276E-03
   0.289354E-03
   0.777396E-02
   0.699228E-03
   0.596486E-03
   0.806506E-02
   0.196751E-03
   0.383256E-03
   0.481365E-03
   0.346104E-03
   0.340555E-03
   0.131487E-03
   0.516643E-04
   0.501412E-04
   0.632592E-04
   0.183905E-03
   0.793047E-04
   0.108581E-03
   0.110798E-03
   0.811844E-04
   0.282015E-05
   0.446252E-03
   0.535574E-03
   0.171210E-03
   0.368153E-03
   0.608665E-04
   0.132679E-03
   0.641316E-03
   0.121431E-16
   0.158759E-03
   0.180163E-03
   0.155772E-05
   0.140795E-03
   0.452012E-03
   0.319749E-03
   0.954516E-04
   0.103012E-03
   0.674012E-03
   0.582932E-03
   0.729227E-04
   0.357515E-03
   0.486159E-03
   0.182757E-04
   0.142664E-03
   0.422173E-03
   0.273614E-03
   0.140646E-03
   0.195990E-04
   0.685014E-03
   0.875007E-02
   0.124748E-03
   0.113316E-03
   0.127799E-03
   0.133549E-03
   0.863334E-02
   0.859380E-03
   0.350081E-03
   0.718189E-03
   0.886407E-03
   0.454338E-03
   0.715904E-03
   0.829687E-03
   0.771947E-03
   0.605771E-03
   0.549806E-03
   0.103879E-02
   0.102335E-02
   0.540310E-03
   0.580163E-03
   0.432738E-05
   0.433681E-17
   0.674012E-03
   0.977996E-04
   0.146306E-02
   0.135509E-02
   0.581770E-04
   0.233906E-02
   0.531959E-03
   0.536407E-03
   0.231922E-02
   0.110333E-03
   0.109010E-03
   0.241783E-03
   0.121790E-04
   0.200040E-04
   0.250458E-03
   0.290940E-03
   0.122671E-02
   0.125024E-02
   0.299811E-03
   0.103012E-03
   0.446252E-03
   0.364730E-03
   0.818845E-04
   0.250216E-02
   0.436718E-03
   0.368044E-03
   0.232975E-02
   0.863334E-02
   0.875007E-02
   0.803189E-02
   0.774694E-02
   0.260209E-16
   0.122671E-02
   0.863766E-02
   0.124368E-02
   0.108855E-04
   0.846284E-02
   0.200771E-02
   0.458557E-04
   0.120228E-04
   0.176792E-02
   0.857948E-02
   0.138986E-03
   0.268000E-03
   0.266047E-03
   0.143534E-03
   0.856064E-02
   0.282015E-05
   0.207290E-03
   0.160120E-03
   0.458488E-04
   0.909705E-02
   0.911144E-02
   0.165020E-02
   0.576955E-04
   0.730216E-04
   0.140396E-02
   0.100572E-02
   0.319848E-03
   0.290940E-03
   0.103879E-02
   0.954816E-02
   0.946509E-02
   0.231223E-03
   0.235771E-03
   0.165908E-02
   0.200931E-05
   0.190820E-16
   0.140396E-02
   0.148211E-03
   0.256092E-03
   0.224096E-03
   0.165339E-03
   0.959401E-02
   0.945307E-02
   0.549806E-03
   0.486159E-03
   0.407458E-03
   0.552409E-03
   0.938005E-02
   0.953632E-02
   0.730216E-04
   0.176792E-02
   0.203075E-02
   0.518199E-04
   0.316321E-03
   0.403881E-03
   0.395508E-03
   0.329624E-03
   0.357515E-03
   0.954516E-04
   0.142059E-03
   0.293425E-03
   0.953431E-02
   0.938005E-02
   0.252970E-02
   0.534528E-04
   0.120228E-04
   0.232975E-02
   0.958613E-02
   0.945307E-02
   0.495851E-03
   0.509153E-03
   0.154272E-03
   0.391668E-03
   0.319749E-03
   0.171210E-03
   0.237792E-02
   0.445207E-03
   0.368044E-03
   0.231922E-02
   0.946509E-02
   0.953267E-02
   0.535574E-03
   0.131487E-03
   0.125938E-03
   0.537487E-03
   0.142272E-02
   0.563529E-03
   0.536407E-03
   0.146306E-02
   0.908747E-02
   0.909705E-02
   0.340555E-03
   0.346104E-03
   0.977996E-04
   0.829687E-03
   0.834489E-03
   0.507466E-04
   0.856064E-02
   0.852394E-02
   0.481365E-03
   0.699228E-03
   0.715904E-03
   0.454338E-03
   0.847319E-02
   0.846284E-02
   0.886407E-03
   0.859380E-03
   0.777396E-02
   0.774694E-02
   0.863334E-02
   0.863334E-02
   0.102363E-01
   0.102363E-01
   0.856942E-02
   0.166683E-02
   0.170792E-02
   0.852833E-02
   0.227313E-02
   0.223205E-02
   0.538161E-03
   0.906649E-02
   0.910226E-02
   0.532841E-03
   0.479336E-03
   0.229087E-02
   0.232790E-02
   0.478073E-03
   0.919378E-05
   0.793041E-05
   0.875414E-03
   0.994191E-02
   0.999156E-02
   0.889304E-03
   0.306734E-02
   0.149870E-03
   0.577297E-04
   0.310856E-02
   0.441305E-03
   0.300628E-03
   0.306211E-03
   0.356010E-03
   0.711694E-03
   0.106536E-01
   0.105791E-01
   0.587527E-03
   0.296454E-02
   0.690327E-03
   0.639359E-03
   0.318089E-02
   0.178020E-03
   0.172438E-03
   0.242547E-03
   0.123792E-02
   0.134004E-02
   0.208404E-03
   0.106111E-01
   0.319815E-04
   0.112843E-03
   0.143227E-03
   0.158975E-03
   0.888654E-04
   0.142910E-03
   0.107965E-01
   0.749718E-03
   0.257408E-02
   0.225756E-02
   0.738954E-03
   0.524270E-04
   0.193521E-02
   0.197668E-02
   0.102311E-03
   0.127010E-03
   0.111263E-03
   0.280718E-03
   0.655641E-04
   0.767734E-04
   0.218066E-03
   0.119945E-03
   0.106766E-01
   0.104722E-01
   0.138873E-03
   0.371991E-03
   0.208215E-02
   0.179195E-02
   0.326740E-03
   0.197804E-02
   0.325382E-03
   0.299019E-03
   0.200818E-02
   0.684905E-04
   0.102980E-03
   0.129281E-03
   0.678347E-04
   0.598128E-06
   0.516487E-03