# vtk DataFile Version 2.0
This file was created by Fortran
ASCII
DATASET UNSTRUCTURED_GRID
POINTS  1088  DOUBLE
   0.218479E-01   0.100251E+01   0.122110E+00
  -0.238416E-02   0.978455E+00   0.122181E+00
   0.761449E-01   0.100907E+01   0.114008E+00
   0.306700E-01   0.993861E+00   0.811106E-01
   0.643802E-02   0.969810E+00   0.811814E-01
  -0.918793E-02   0.924274E+00   0.114308E+00
   0.532479E-01   0.994043E+00   0.459526E-01
   0.625034E-02   0.947372E+00   0.461329E-01
  -0.937561E-02   0.901835E+00   0.792597E-01
  -0.150703E-01   0.857176E+00   0.117534E+00
   0.143185E+00   0.101465E+01   0.116968E+00
   0.987228E-01   0.100925E+01   0.788501E-01
   0.306739E-01   0.922943E+00   0.442000E-01
  -0.116424E-01   0.872326E+00   0.476861E-01
   0.128329E+00   0.101141E+01   0.471715E-01
   0.776715E-01   0.969614E+00   0.442000E-01
   0.111068E+00   0.942471E+00   0.442000E-01
   0.578093E-01   0.889588E+00   0.442000E-01
  -0.173371E-01   0.827668E+00   0.859605E-01
  -0.173028E-01   0.789296E+00   0.120397E+00
   0.210977E+00   0.101668E+01   0.119673E+00
   0.172791E+00   0.101680E+01   0.852893E-01
   0.203642E+00   0.102094E+01   0.565841E-01
   0.161725E+00   0.984268E+00   0.481303E-01
   0.154930E-01   0.838972E+00   0.484646E-01
  -0.216342E-01   0.796892E+00   0.574629E-01
   0.194295E+00   0.956838E+00   0.442000E-01
   0.149911E+00   0.903759E+00   0.442000E-01
   0.966529E-01   0.850876E+00   0.442000E-01
   0.429416E-01   0.806444E+00   0.442000E-01
  -0.215999E-01   0.758520E+00   0.918991E-01
  -0.183146E-01   0.723517E+00   0.122223E+00
   0.276696E+00   0.101758E+01   0.121430E+00
   0.241827E+00   0.102082E+01   0.909674E-01
   0.273053E+00   0.102622E+01   0.637208E-01
   0.236212E+00   0.993510E+00   0.526538E-01
   0.581451E-02   0.764364E+00   0.531983E-01
  -0.272108E-01   0.727359E+00   0.649839E-01
   0.185417E+00   0.861037E+00   0.442000E-01
   0.139681E+00   0.815417E+00   0.442000E-01
   0.859702E-01   0.770984E+00   0.442000E-01
   0.327400E-01   0.732514E+00   0.442000E-01
   0.268115E+00   0.966559E+00   0.442000E-01
   0.229800E+00   0.914116E+00   0.442000E-01
   0.341163E+00   0.101792E+01   0.122374E+00
   0.307922E+00   0.102298E+01   0.941838E-01
   0.263081E+00   0.868717E+00   0.442000E-01
   0.223791E+00   0.822750E+00   0.442000E-01
   0.178056E+00   0.777130E+00   0.442000E-01
   0.131823E+00   0.737745E+00   0.442000E-01
  -0.239255E-01   0.692356E+00   0.953073E-01
  -0.187372E-01   0.659015E+00   0.123187E+00
  -0.285300E-03   0.695510E+00   0.559856E-01
  -0.303722E-01   0.661012E+00   0.693777E-01
   0.339327E+00   0.102917E+01   0.678155E-01
   0.304956E+00   0.999266E+00   0.552670E-01
   0.785931E-01   0.699275E+00   0.442000E-01
   0.260746E-01   0.663848E+00   0.442000E-01
   0.336681E+00   0.972809E+00   0.442000E-01
   0.301396E+00   0.921159E+00   0.442000E-01
   0.258601E+00   0.782086E+00   0.442000E-01
   0.218869E+00   0.742341E+00   0.442000E-01
   0.333871E+00   0.873975E+00   0.442000E-01
   0.297891E+00   0.828053E+00   0.442000E-01
   0.172636E+00   0.702956E+00   0.442000E-01
   0.126339E+00   0.666856E+00   0.442000E-01
  -0.251839E-01   0.627671E+00   0.972573E-01
  -0.188883E-01   0.595194E+00   0.123703E+00
   0.404963E+00   0.101799E+01   0.122889E+00
   0.372568E+00   0.102411E+01   0.960053E-01
  -0.401235E-02   0.629351E+00   0.575922E-01
  -0.320984E-01   0.596168E+00   0.718201E-01
   0.404132E+00   0.103073E+01   0.700429E-01
   0.371052E+00   0.100271E+01   0.567485E-01
   0.402861E+00   0.976481E+00   0.442000E-01
   0.369157E+00   0.925625E+00   0.442000E-01
   0.738208E-01   0.631430E+00   0.442000E-01
   0.220554E-01   0.597610E+00   0.442000E-01
   0.255157E+00   0.706061E+00   0.442000E-01
   0.215303E+00   0.669630E+00   0.442000E-01
   0.331247E+00   0.785605E+00   0.442000E-01
   0.294889E+00   0.745806E+00   0.442000E-01
   0.169007E+00   0.633531E+00   0.442000E-01
   0.122908E+00   0.599179E+00   0.442000E-01
   0.401472E+00   0.877180E+00   0.442000E-01
   0.367227E+00   0.831528E+00   0.442000E-01
  -0.258028E-01   0.563691E+00   0.982662E-01
  -0.189286E-01   0.531699E+00   0.123930E+00
   0.468442E+00   0.101796E+01   0.123120E+00
   0.436527E+00   0.102461E+01   0.969261E-01
   0.468286E+00   0.103135E+01   0.709861E-01
   0.435941E+00   0.100450E+01   0.574944E-01
   0.329165E+00   0.708328E+00   0.442000E-01
   0.292653E+00   0.671787E+00   0.442000E-01
  -0.603065E-02   0.564427E+00   0.584280E-01
  -0.328633E-01   0.531992E+00   0.729172E-01
   0.400130E+00   0.787791E+00   0.442000E-01
   0.365523E+00   0.748127E+00   0.442000E-01
   0.252799E+00   0.635357E+00   0.442000E-01
   0.213031E+00   0.600671E+00   0.442000E-01
   0.468005E+00   0.978089E+00   0.442000E-01
   0.435176E+00   0.928037E+00   0.442000E-01
   0.711428E-01   0.565360E+00   0.442000E-01
   0.201622E-01   0.532436E+00   0.442000E-01
   0.467680E+00   0.878623E+00   0.442000E-01
   0.434375E+00   0.833443E+00   0.442000E-01
   0.166932E+00   0.566319E+00   0.442000E-01
   0.121260E+00   0.532924E+00   0.442000E-01
   0.399041E+00   0.709759E+00   0.442000E-01
   0.364226E+00   0.673258E+00   0.442000E-01
   0.327714E+00   0.636717E+00   0.442000E-01
   0.291205E+00   0.601854E+00   0.442000E-01
  -0.259890E-01   0.500000E+00   0.985812E-01
  -0.189286E-01   0.468301E+00   0.123930E+00
   0.531825E+00   0.101788E+01   0.123123E+00
   0.500202E+00   0.102469E+01   0.971796E-01
  -0.667047E-02   0.500000E+00   0.586893E-01
  -0.328633E-01   0.468008E+00   0.729172E-01
   0.251436E+00   0.567168E+00   0.442000E-01
   0.211930E+00   0.533395E+00   0.442000E-01
   0.532255E+00   0.103120E+01   0.708800E-01
   0.500351E+00   0.100494E+01   0.576918E-01
   0.467348E+00   0.788787E+00   0.442000E-01
   0.433648E+00   0.749422E+00   0.442000E-01
   0.532861E+00   0.977858E+00   0.442000E-01
   0.500509E+00   0.928675E+00   0.442000E-01
   0.702792E-01   0.500000E+00   0.442000E-01
   0.201622E-01   0.467564E+00   0.442000E-01
   0.398272E+00   0.637587E+00   0.442000E-01
   0.363375E+00   0.602671E+00   0.442000E-01
   0.533500E+00   0.878446E+00   0.442000E-01
   0.500653E+00   0.833966E+00   0.442000E-01
   0.166257E+00   0.500000E+00   0.442000E-01
   0.121260E+00   0.467076E+00   0.442000E-01
   0.467071E+00   0.710419E+00   0.442000E-01
   0.433087E+00   0.674088E+00   0.442000E-01
   0.326866E+00   0.567807E+00   0.442000E-01
   0.290498E+00   0.533772E+00   0.442000E-01
   0.534098E+00   0.788677E+00   0.442000E-01
   0.500770E+00   0.749783E+00   0.442000E-01
   0.250991E+00   0.500000E+00   0.442000E-01
   0.211930E+00   0.466605E+00   0.442000E-01
   0.595300E+00   0.101777E+01   0.122892E+00
   0.563878E+00   0.102439E+01   0.968229E-01
  -0.258028E-01   0.436309E+00   0.982662E-01
  -0.188883E-01   0.404806E+00   0.123703E+00
   0.596412E+00   0.103028E+01   0.697208E-01
   0.564765E+00   0.100412E+01   0.573882E-01
  -0.603065E-02   0.435573E+00   0.584280E-01
  -0.320984E-01   0.403832E+00   0.718201E-01
   0.397818E+00   0.568219E+00   0.442000E-01
   0.362957E+00   0.534035E+00   0.442000E-01
   0.466871E+00   0.637992E+00   0.442000E-01
   0.432715E+00   0.603135E+00   0.442000E-01
   0.711428E-01   0.434640E+00   0.442000E-01
   0.220554E-01   0.402390E+00   0.442000E-01
   0.598020E+00   0.975787E+00   0.442000E-01
   0.565852E+00   0.927629E+00   0.442000E-01
   0.534575E+00   0.710352E+00   0.442000E-01
   0.500855E+00   0.674323E+00   0.442000E-01
   0.326588E+00   0.500000E+00   0.442000E-01
   0.290498E+00   0.466228E+00   0.442000E-01
   0.599727E+00   0.876656E+00   0.442000E-01
   0.566944E+00   0.833156E+00   0.442000E-01
   0.166932E+00   0.433681E+00   0.442000E-01
   0.122908E+00   0.400821E+00   0.442000E-01
   0.601333E+00   0.787468E+00   0.442000E-01
   0.567902E+00   0.749246E+00   0.442000E-01
   0.251436E+00   0.432832E+00   0.442000E-01
   0.213031E+00   0.399329E+00   0.442000E-01
   0.466752E+00   0.568412E+00   0.442000E-01
   0.432531E+00   0.534184E+00   0.442000E-01
   0.659085E+00   0.101754E+01   0.122359E+00
   0.627834E+00   0.102366E+01   0.957899E-01
   0.397669E+00   0.500000E+00   0.442000E-01
   0.362957E+00   0.465965E+00   0.442000E-01
  -0.251839E-01   0.372329E+00   0.972573E-01
  -0.187372E-01   0.340985E+00   0.123187E+00
   0.534910E+00   0.637953E+00   0.442000E-01
   0.500909E+00   0.603268E+00   0.442000E-01
  -0.401235E-02   0.370649E+00   0.575922E-01
  -0.303722E-01   0.338988E+00   0.693777E-01
   0.661216E+00   0.102840E+01   0.672699E-01
   0.629666E+00   0.100195E+01   0.565326E-01
   0.664216E+00   0.971650E+00   0.442000E-01
   0.631896E+00   0.924814E+00   0.442000E-01
   0.738208E-01   0.368570E+00   0.442000E-01
   0.260746E-01   0.336152E+00   0.442000E-01
   0.602614E+00   0.709565E+00   0.442000E-01
   0.568630E+00   0.673982E+00   0.442000E-01
   0.326866E+00   0.432193E+00   0.442000E-01
   0.291205E+00   0.398146E+00   0.442000E-01
   0.667347E+00   0.873127E+00   0.442000E-01
   0.634116E+00   0.830968E+00   0.442000E-01
   0.169007E+00   0.366469E+00   0.442000E-01
   0.126339E+00   0.333144E+00   0.442000E-01
   0.535106E+00   0.568394E+00   0.442000E-01
   0.500934E+00   0.534227E+00   0.442000E-01
   0.466713E+00   0.500000E+00   0.442000E-01
   0.432531E+00   0.465816E+00   0.442000E-01
   0.670218E+00   0.785097E+00   0.442000E-01
   0.636045E+00   0.747788E+00   0.442000E-01
   0.252799E+00   0.364643E+00   0.442000E-01
   0.215303E+00   0.330370E+00   0.442000E-01
   0.397818E+00   0.431781E+00   0.442000E-01
   0.363375E+00   0.397329E+00   0.442000E-01
   0.603512E+00   0.637476E+00   0.442000E-01
   0.569107E+00   0.603079E+00   0.442000E-01
   0.723517E+00   0.101705E+01   0.121362E+00
   0.692467E+00   0.102228E+01   0.938393E-01
[...]
POINT_DATA  1088
SCALARS  vx_strength  double
LOOKUP_TABLE default
   0.219480E-01
   0.219480E-01
   0.197028E-01
   0.224520E-02
   0.226069E-02
   0.196873E-01
   0.392912E-02
   0.391363E-02
   0.121517E-02
   0.209025E-01
   0.209295E-01
   0.122665E-02
   0.340548E-03
   0.546935E-02
   0.541036E-02
   0.254591E-03
   0.253084E-02
   0.244489E-02
   0.367688E-03
   0.212702E-01
   0.212972E-01
   0.367761E-03
   0.578962E-02
   0.115000E-04
   0.623234E-04
   0.589936E-02
   0.382342E-02
   0.130407E-02
   0.143023E-02
   0.381280E-02
   0.476513E-03
   0.217467E-01
   0.217733E-01
   0.476063E-03
   0.581838E-02
   0.447297E-03
   0.426909E-03
   0.594896E-02
   0.246223E-02
   0.233607E-02
   0.312214E-03
   0.455192E-02
   0.449682E-02
   0.226107E-03
   0.221254E-01
   0.352089E-03
   0.309633E-02
   0.860207E-03
   0.971816E-03
   0.299567E-02
   0.350662E-03
   0.220974E-01
   0.395250E-03
   0.590437E-02
   0.576354E-02
   0.406934E-03
   0.295412E-04
   0.497671E-02
   0.487123E-02
   0.325216E-04
   0.138294E-02
   0.127134E-02
   0.348947E-02
   0.360619E-03
   0.451246E-03
   0.341738E-02
   0.243884E-03
   0.223412E-01
   0.223724E-01
   0.247009E-03
   0.298265E-03
   0.584999E-02
   0.570301E-02
   0.307544E-03
   0.506711E-02
   0.111664E-03
   0.641799E-04
   0.521080E-02
   0.718092E-03
   0.153818E-02
   0.164158E-02
   0.619257E-03
   0.189033E-03
   0.367059E-02
   0.371574E-02
   0.114601E-03
   0.122316E-03
   0.224636E-01
   0.224991E-01
   0.126742E-03
   0.566531E-02
   0.164436E-03
   0.888733E-03
   0.789897E-03
   0.154464E-03
   0.581784E-02
   0.179106E-02
   0.264082E-03
   0.350098E-03
   0.169925E-02
   0.514325E-02
   0.883014E-04
   0.490120E-04
   0.531625E-02
   0.381132E-02
   0.727996E-05
   0.703460E-04
   0.378995E-02
   0.988397E-03
   0.363746E-03
   0.454258E-03
   0.894057E-03
   0.416334E-16
   0.224636E-01
   0.225044E-01
   0.530022E-05
   0.242861E-16
   0.581784E-02
   0.146421E-03
   0.177532E-02
   0.565855E-02
   0.120625E-04
   0.185434E-02
   0.705572E-04
   0.512072E-02
   0.345899E-04
   0.121431E-16
   0.531625E-02
   0.515680E-03
   0.425169E-03
   0.379100E-02
   0.549072E-04
   0.000000E+00
   0.378995E-02
   0.103087E-02
   0.113027E-03
   0.195925E-03
   0.943561E-03
   0.184112E-02
   0.681264E-04
   0.954098E-17
   0.177532E-02
   0.223877E-01
   0.116738E-03
   0.122316E-03
   0.223412E-01
   0.568151E-02
   0.139703E-03
   0.154464E-03
   0.584999E-02
   0.225302E-03
   0.454546E-03
   0.542043E-03
   0.139389E-03
   0.490120E-04
   0.521080E-02
   0.499843E-02
   0.174175E-04
   0.102215E-02
   0.768400E-04
   0.173472E-17
   0.943561E-03
   0.365485E-02
   0.118736E-03
   0.703460E-04
   0.367059E-02
   0.175175E-02
   0.208110E-03
   0.146421E-03
   0.169925E-02
   0.237973E-03
   0.152061E-03
   0.221486E-01
   0.239038E-03
   0.520417E-17
   0.454546E-03
   0.243884E-03
   0.220974E-01
   0.536726E-03
   0.821566E-04
   0.298265E-03
   0.590437E-02
   0.572328E-02
   0.280807E-03
   0.475314E-02
   0.355141E-04
   0.641799E-04
   0.497671E-02
   0.962658E-03
   0.267604E-03
   0.195925E-03
   0.894057E-03
   0.338854E-02
   0.230794E-03
   0.189033E-03
   0.341738E-02
   0.235447E-03
   0.846835E-04
   0.693889E-17
   0.152061E-03
   0.157754E-02
   0.405006E-03
   0.350098E-03
   0.153818E-02
   0.225302E-03
   0.425169E-03
   0.500064E-03
   0.304266E-03
   0.218001E-01
   0.348531E-03
   0.350662E-03
   0.217467E-01
   0.575150E-02
   0.376752E-03
   0.395250E-03
   0.594896E-02
   0.432462E-02
   0.517672E-04
   0.295412E-04
   0.455192E-02
   0.454258E-03
   0.789897E-03
   0.847429E-03
   0.520235E-03
   0.130104E-16
   0.846835E-04
   0.217905E-03
   0.321808E-03
   0.295803E-02
   0.482284E-03
   0.237973E-03
   0.139389E-03
   0.451246E-03
   0.299567E-02
   0.515680E-03
   0.363746E-03
   0.429496E-03
   0.590803E-03
   0.129813E-02
   0.761688E-03
   0.718092E-03
   0.127134E-02
   0.213191E-01
   0.481009E-03
   0.476513E-03
   0.212702E-01
   0.156125E-16
   0.321808E-03
   0.568215E-02
   0.411651E-03
   0.235447E-03
   0.821566E-04
   0.426909E-03
   0.589936E-02
   0.888733E-03
   0.619257E-03
   0.664879E-03
   0.944239E-03
   0.359446E-02
   0.318509E-03
   0.312214E-03
   0.381280E-02
   0.184278E-03
   0.624430E-03
   0.542043E-03
   0.113027E-03
   0.971816E-03
   0.233607E-02
   0.229614E-02
   0.980392E-03
   0.318846E-03
   0.105489E-02
   0.988397E-03
   0.264082E-03
   0.876291E-03
   0.140223E-02
   0.138294E-02
   0.860207E-03
   0.217905E-03
   0.304266E-03
   0.536726E-03
   0.768400E-04
   0.780626E-17
   0.624430E-03
   0.209314E-01
   0.387715E-03
   0.367688E-03
   0.209025E-01
   0.394100E-03
   0.167301E-02
   0.164158E-02
   0.360619E-03
   0.524538E-02
   0.490461E-04
   0.131891E-03
   0.110727E-02
   0.623234E-04
   0.546935E-02
   0.103087E-02
   0.705572E-04
   0.226617E-02
   0.137734E-02
   0.143023E-02
   0.244489E-02
   0.127425E-02
   0.239923E-02
   0.246223E-02
   0.130407E-02
   0.156632E-03
   0.183523E-02
   0.179106E-02
   0.114601E-03
   0.500064E-03
   0.267604E-03
   0.184278E-03
   0.590803E-03
   0.102215E-02
   0.681264E-04
   0.309633E-02
   0.226107E-03
   0.238608E-03
   0.303692E-02
   0.433681E-17
   0.110727E-02
   0.555728E-04
   0.191154E-02
   0.185434E-02
   0.727996E-05
   0.815008E-05
   0.343917E-02
   0.348947E-02
   0.325216E-04
   0.196720E-01
   0.125940E-02
   0.121517E-02
   0.196873E-01
   0.340548E-03
   0.391363E-02
   0.374071E-02
   0.245275E-03
   0.173074E-03
   0.233837E-02
   0.429496E-03
   0.520235E-03
   0.253084E-02
   0.254591E-03
   0.131891E-03
   0.105489E-02
   0.962658E-03
   0.208110E-03
   0.827235E-04
   0.367852E-02
   0.716351E-05
   0.360545E-02
   0.371574E-02
   0.111664E-03
   0.382342E-02
   0.115000E-04
   0.000000E+00
   0.191154E-02
   0.184112E-02
   0.549072E-04
   0.449682E-02
   0.447297E-03
   0.433054E-03
   0.427712E-02
   0.567331E-04
   0.379083E-02
   0.381132E-02
   0.883014E-04
   0.389877E-03
   0.465884E-02
   0.847429E-03
   0.405006E-03
   0.487123E-02
   0.406934E-03
   0.318846E-03
   0.944239E-03
   0.226069E-02
   0.219480E-01
   0.555728E-04
   0.183523E-02
   0.175175E-02
   0.118736E-03
   0.218597E-01
   0.218769E-02
   0.392912E-02
   0.224520E-02
   0.217265E-02
   0.375574E-02
   0.127010E-02
   0.519891E-02
   0.541036E-02
   0.122665E-02
   0.291471E-03
   0.486759E-02
   0.506711E-02
   0.307544E-03
   0.379100E-02
   0.345899E-04
   0.156125E-16
   0.379083E-02
   0.387491E-03
   0.559356E-02
   0.578962E-02
   0.367761E-03
   0.581838E-02
   0.476063E-03
   0.481335E-03
   0.564184E-02
   0.664879E-03
   0.761688E-03
   0.156632E-03
   0.167301E-02
   0.157754E-02
   0.230794E-03
   0.150385E-03
   0.496124E-02
   0.514325E-02
   0.164436E-03
   0.567331E-04
   0.367852E-02
   0.365485E-02
   0.174175E-04
   0.576354E-02
   0.352089E-03
   0.350466E-03
   0.560243E-02
   0.218597E-01
   0.219480E-01
   0.197028E-01
   0.196870E-01
   0.138778E-16
   0.496124E-02
   0.209295E-01
   0.512072E-02
   0.120625E-04
   0.209571E-01
   0.570301E-02
   0.247009E-03
   0.242545E-03
   0.555351E-02
   0.212972E-01
   0.129813E-02
   0.482284E-03
   0.394100E-03
   0.140223E-02
   0.213446E-01
   0.827235E-04
   0.343917E-02
   0.338854E-02
   0.355141E-04
   0.218259E-01
   0.217733E-01
   0.566531E-02
   0.126742E-03
   0.121356E-03
   0.552448E-02
   0.499843E-02
   0.139703E-03
   0.150385E-03
   0.486759E-02
   0.221254E-01
   0.221764E-01
   0.876291E-03
   0.980392E-03
   0.565855E-02
   0.530022E-05
   0.381639E-16
   0.552448E-02
   0.295803E-02
   0.517672E-04
   0.815008E-05
   0.303692E-02
   0.223724E-01
   0.224190E-01
   0.291471E-03
   0.465884E-02
   0.475314E-02
   0.280807E-03
   0.225403E-01
   0.224991E-01
   0.121356E-03
   0.555351E-02
   0.568151E-02
   0.116738E-03
   0.229614E-02
   0.318509E-03
   0.238608E-03
   0.239923E-02
   0.389877E-03
   0.427712E-02
   0.432462E-02
   0.376752E-03
   0.225044E-01
   0.225403E-01
   0.572328E-02
   0.239038E-03
   0.242545E-03
   0.560243E-02
   0.223877E-01
   0.224190E-01
   0.127425E-02
   0.137734E-02
   0.359446E-02
   0.411651E-03
   0.433054E-03
   0.360545E-02
   0.575150E-02
   0.348531E-03
   0.350466E-03
   0.564184E-02
   0.221764E-01
   0.221486E-01
   0.716351E-05
   0.233837E-02
   0.226617E-02
   0.490461E-04
   0.568215E-02
   0.481009E-03
   0.481335E-03
   0.559356E-02
   0.218001E-01
   0.218259E-01
   0.173074E-03
   0.245275E-03
   0.387491E-03
   0.519891E-02
   0.524538E-02
   0.387715E-03
   0.213446E-01
   0.213191E-01
   0.374071E-02
   0.125940E-02
   0.127010E-02
   0.375574E-02
   0.209314E-01
   0.209571E-01
   0.217265E-02
   0.218769E-02
   0.196720E-01
   0.196870E-01
   0.218597E-01
   0.218597E-01
   0.245275E-01
   0.245275E-01
   0.248385E-01
   0.310971E-03
   0.635732E-03
   0.251632E-01
   0.190896E-02
   0.158420E-02
   0.319579E-02
   0.283590E-01
   0.278791E-01
   0.304058E-02
   0.376218E-02
   0.215059E-02
   0.248412E-02
   0.361574E-02
   0.452277E-02
   0.437633E-02
   0.159001E-02
   0.299490E-01
   0.293604E-01
   0.148134E-02
   0.292113E-02
   0.191835E-02
   0.202489E-02
   0.258547E-02
   0.499458E-02
   0.239017E-02
   0.250320E-02
   0.485465E-02
   0.123104E-02
   0.311801E-01
   0.305108E-01
   0.115044E-02
   0.320401E-02
   0.143332E-02
   0.151425E-02
   0.286867E-02
   0.283516E-02
   0.272213E-02
   0.186795E-02
   0.520835E-02
   0.534089E-02
   0.177963E-02
   0.312655E-01
   0.754697E-03
   0.308149E-02
   0.202596E-02
   0.211656E-02
   0.297073E-02
   0.817140E-03
   0.319972E-01
   0.100932E-02
   0.306085E-02
   0.339366E-02
   0.944348E-03
   0.124912E-02
   0.544815E-02
   0.557255E-02
   0.117601E-02
   0.230668E-02
   0.221608E-02
   0.325043E-02
   0.134495E-02
   0.142211E-02
   0.314373E-02
   0.516492E-03
   0.325137E-01
   0.317334E-01
   0.467866E-03
   0.634562E-03
   0.317892E-02
   0.350723E-02
   0.581435E-03
   0.571475E-02
   0.723634E-03
   0.785313E-03
   0.559890E-02
   0.155662E-02
   0.235059E-02
   0.243924E-02
   0.147750E-02
   0.895060E-03
   0.325347E-02
   0.335492E-02
   0.828122E-03
   0.248552E-03
   0.327623E-01
   0.319445E-01
   0.211150E-03
   0.355738E-02
   0.261300E-03
   0.165181E-02
   0.157269E-02
   0.305131E-03
   0.323550E-02
   0.252218E-02
   0.911069E-03
   0.981417E-03
   0.243694E-02
   0.577831E-02
   0.324865E-03
   0.377714E-03
   0.567148E-02
   0.340179E-02
   0.371739E-03
   0.430890E-03
   0.330665E-02
   0.171193E-02
   0.971190E-03
   0.104312E-02
   0.163439E-02
   0.138778E-16
   0.327623E-01
   0.319170E-01
   0.275851E-04
   0.138778E-16
   0.323550E-02
   0.472993E-03
   0.247905E-02
   0.354889E-02
   0.360785E-04
   0.255962E-02
   0.409172E-03
   0.576870E-02
   0.456957E-04
   0.138778E-16
   0.567148E-02
   0.108235E-02
   0.101042E-02
   0.339445E-02
   0.530342E-04
   0.693889E-17
   0.330665E-02
   0.173920E-02
   0.436439E-03
   0.503245E-03
   0.166465E-02
   0.255376E-02
   0.588935E-04
   0.208167E-16
   0.247905E-02
   0.316500E-01
   0.266991E-03
   0.248552E-03
   0.325137E-01
   0.348147E-02
   0.334415E-03
   0.305131E-03
   0.317892E-02
   0.522557E-03
   0.102974E-02
   0.110021E-02
   0.454298E-03
   0.377714E-03
   0.559890E-02
   0.568567E-02
   0.417440E-03
   0.173489E-02
   0.631968E-04
   0.000000E+00
   0.166465E-02
   0.333280E-02
   0.479094E-03
   0.430890E-03
   0.325347E-02
   0.250458E-02
   0.528271E-03
   0.472993E-03
   0.243694E-02
   0.531367E-03
   0.463108E-03
   0.311243E-01
   0.525635E-03
   0.277556E-16
   0.102974E-02
   0.516492E-03
   0.319972E-01
   0.109738E-02
   0.660280E-04
   0.634562E-03
   0.306085E-02
   0.334970E-02
   0.657405E-03
   0.552337E-02
   0.819711E-03
   0.785313E-03
   0.544815E-02
   0.169904E-02
   0.564126E-03
   0.503245E-03
   0.163439E-02
   0.321326E-02
   0.939249E-03
   0.895060E-03
   0.314373E-02
   0.529966E-03
   0.674297E-04
   0.693889E-17
   0.463108E-03
   0.240987E-02
   0.103396E-02
   0.981417E-03
   0.235059E-02
   0.522557E-03
   0.101042E-02
   0.107389E-02
   0.587617E-03
   0.303075E-01
   0.816842E-03
   0.817140E-03
   0.311801E-01
   0.314019E-02
   0.102635E-02
   0.100932E-02
   0.286867E-02
   0.527043E-02
   0.127929E-02
   0.124912E-02
   0.520835E-02
   0.104312E-02
   0.157269E-02
   0.163043E-02
   0.110258E-02
   0.138778E-16
   0.674297E-04
   0.518372E-03
   0.599211E-03
   0.302891E-02
   0.146364E-02
   0.531367E-03
   0.454298E-03
   0.142211E-02
   0.297073E-02
   0.108235E-02
   0.971190E-03
   0.102914E-02
   0.114732E-02
   0.226562E-02
   0.160789E-02
   0.155662E-02
   0.221608E-02
   0.290905E-01
   0.121695E-02
   0.123104E-02
   0.299490E-01
   0.555112E-16
   0.599211E-03
   0.283453E-02
   0.152261E-02
   0.529966E-03
   0.660280E-04
   0.151425E-02
   0.258547E-02
   0.165181E-02
   0.147750E-02
   0.152700E-02
   0.171132E-02
   0.490174E-02
   0.189130E-02
   0.186795E-02
   0.485465E-02
   0.496351E-03
   0.116935E-02
   0.110021E-02
   0.436439E-03
   0.211656E-02
   0.272213E-02
   0.276724E-02
   0.215296E-02
   0.962183E-03
   0.177827E-02
   0.171193E-02
   0.911069E-03
   0.206443E-02
   0.235415E-02
   0.230668E-02
   0.202596E-02
   0.518372E-03
   0.587617E-03
   0.109738E-02
   0.631968E-04
   0.000000E+00
   0.116935E-02
   0.275188E-01
   0.157173E-02
   0.159001E-02
   0.283590E-01
   0.138500E-02
   0.249616E-02
   0.243924E-02
   0.134495E-02
   0.237024E-02
   0.203601E-02
   0.463543E-03
   0.181108E-02
   0.202489E-02
   0.215059E-02
   0.173920E-02
   0.409172E-03
   0.440467E-02
   0.253309E-02
   0.250320E-02
   0.437633E-02
   0.241990E-02
   0.288043E-02
   0.283516E-02
   0.239017E-02
   0.871161E-03
   0.258718E-02
   0.252218E-02
   0.828122E-03
   0.107389E-02
   0.564126E-03
   0.496351E-03
   0.114732E-02
   0.173489E-02
   0.588935E-04
   0.308149E-02
   0.177963E-02
   0.180547E-02
   0.313938E-02
   0.624500E-16
   0.181108E-02
   0.419204E-03
   0.263152E-02
   0.255962E-02
   0.371739E-03
   0.120535E-02
   0.331903E-02
   0.325043E-02
   0.117601E-02
   0.244084E-01
   0.311043E-02
   0.319579E-02
   0.251632E-01
   0.376218E-02
   0.158420E-02
   0.176051E-02
   0.372016E-02
   0.362639E-02
   0.449843E-02
   0.102914E-02
   0.110258E-02
   0.452277E-02
   0.361574E-02
   0.463543E-03
   0.177827E-02
   0.169904E-02
   0.528271E-03
   0.757399E-03
   0.343279E-02
   0.193290E-02
   0.498543E-02
   0.335492E-02
   0.723634E-03
   0.499458E-02
   0.191835E-02
   0.277556E-16
   0.263152E-02
   0.255376E-02
   0.530342E-04
   0.534089E-02
   0.143332E-02
   0.144701E-02
   0.534390E-02
   0.364136E-03
   0.348786E-02
   0.340179E-02
   0.324865E-03
   0.962952E-03
   0.558630E-02
   0.163043E-02
   0.103396E-02
   0.557255E-02
   0.944348E-03
   0.962183E-03
   0.171132E-02
   0.635732E-03
   0.245275E-01
   0.419204E-03
   0.258718E-02
   0.250458E-02
   0.479094E-03
   0.236706E-01
   0.737823E-03
   0.190896E-02
   0.310971E-03
   0.432273E-03
   0.206606E-02
   0.301406E-02
   0.267840E-02
   0.248412E-02
   0.304058E-02
   0.605234E-03
   0.573847E-02
   0.571475E-02
   0.581435E-03
   0.339445E-02
   0.456957E-04
   0.138778E-16
   0.348786E-02
   0.147139E-02
   0.313990E-02
   0.292113E-02
   0.148134E-02
   0.320401E-02
   0.115044E-02
   0.114636E-02
   0.344055E-02
   0.152700E-02
   0.160789E-02
   0.871161E-03
   0.249616E-02
   0.240987E-02
   0.939249E-03
   0.290930E-03
   0.581167E-02
   0.577831E-02
   0.261300E-03
   0.364136E-03
   0.343279E-02
   0.333280E-02
   0.417440E-03
   0.339366E-02
   0.754697E-03
   0.759114E-03
   0.364439E-02
   0.236706E-01
   0.245275E-01
   0.248385E-01
   0.241028E-01
   0.138778E-16
   0.581167E-02
   0.278791E-01
   0.576870E-02
   0.360785E-04
   0.271169E-01
   0.350723E-02
   0.467866E-03
   0.480030E-03
   0.376960E-02
   0.293604E-01
   0.226562E-02
   0.146364E-02
   0.138500E-02
   0.235415E-02
   0.285883E-01
   0.757399E-03
   0.331903E-02
   0.321326E-02
   0.819711E-03
   0.297346E-01
   0.305108E-01
   0.355738E-02
   0.211150E-03
   0.230928E-03
   0.382960E-02
   0.568567E-02
   0.334415E-03
   0.290930E-03
   0.573847E-02
   0.312655E-01
   0.304938E-01
   0.206443E-02
   0.215296E-02
   0.354889E-02
   0.275851E-04
   0.208167E-16
   0.382960E-02
   0.302891E-02
   0.127929E-02
   0.120535E-02
   0.313938E-02
   0.317334E-01
   0.309738E-01
   0.605234E-03
   0.558630E-02
   0.552337E-02
   0.657405E-03
   0.312047E-01
   0.319445E-01
   0.230928E-03
   0.376960E-02
   0.348147E-02
   0.266991E-03
   0.276724E-02
   0.189130E-02
   0.180547E-02
   0.288043E-02
   0.962952E-03
   0.534390E-02
   0.527043E-02
   0.102635E-02
   0.319170E-01
   0.312047E-01
   0.334970E-02
   0.525635E-03
   0.480030E-03
   0.364439E-02
   0.316500E-01
   0.309738E-01
   0.241990E-02
   0.253309E-02
   0.490174E-02
   0.152261E-02
   0.144701E-02
   0.498543E-02
   0.314019E-02
   0.816842E-03
   0.759114E-03
   0.344055E-02
   0.304938E-01
   0.311243E-01
   0.193290E-02
   0.449843E-02
   0.440467E-02
   0.203601E-02
   0.283453E-02
   0.121695E-02
   0.114636E-02
   0.313990E-02
   0.303075E-01
   0.297346E-01
   0.362639E-02
   0.372016E-02
   0.147139E-02
   0.267840E-02
   0.237024E-02
   0.157173E-02
   0.285883E-01
   0.290905E-01
   0.176051E-02
   0.311043E-02
   0.301406E-02
   0.206606E-02
   0.275188E-01
   0.271169E-01
   0.432273E-03
   0.737823E-03
   0.244084E-01
   0.241028E-01
   0.236706E-01
   0.236706E-01

SCALARS  vx_core_radius  double
LOOKUP_TABLE default
   0.439556E-01
   0.439524E-01
   0.441745E-01
   0.396661E-01
   0.419502E-01
   0.441747E-01
   0.444535E-01
   0.444926E-01
   0.445167E-01
   0.441329E-01
   0.441328E-01
   0.445379E-01
   0.442175E-01
   0.448345E-01
   0.447410E-01
   0.442143E-01
   0.444249E-01
   0.444223E-01
   0.444280E-01
   0.441621E-01
   0.441620E-01
   0.444448E-01
   0.444684E-01
   0.442053E-01
   0.442071E-01
   0.445128E-01
   0.443739E-01
   0.444634E-01
   0.444822E-01
   0.443794E-01
   0.438178E-01
   0.441797E-01
   0.441796E-01
   0.437927E-01
   0.443324E-01
   0.442084E-01
   0.442064E-01
   0.443533E-01
   0.444608E-01
   0.444565E-01
   0.442937E-01
   0.443059E-01
   0.443007E-01
   0.442705E-01
   0.441890E-01
   0.437181E-01
   0.443606E-01
   0.443499E-01
   0.443639E-01
   0.443627E-01
   0.437542E-01
   0.441891E-01
   0.442300E-01
   0.442848E-01
   0.442740E-01
   0.441744E-01
   0.442189E-01
   0.442654E-01
   0.442618E-01
   0.441914E-01
   0.443176E-01
   0.443131E-01
   0.443015E-01
   0.443050E-01
   0.443258E-01
   0.443042E-01
   0.436952E-01
   0.441938E-01
   0.441936E-01
   0.436398E-01
   0.441531E-01
   0.442555E-01
   0.442489E-01
   0.441466E-01
   0.442432E-01
   0.441237E-01
   0.441606E-01
   0.442457E-01
   0.443026E-01
   0.442789E-01
   0.442801E-01