# vtk DataFile Version 2.0
This file was created by Fortran
ASCII
DATASET UNSTRUCTURED_GRID
POINTS  2176  DOUBLE
   0.135469E-01   0.101881E+01   0.793920E-01
  -0.188091E-01   0.986517E+00   0.795209E-01
   0.771236E-01   0.102314E+01   0.713637E-01
   0.392432E-01   0.992956E+00   0.566604E-01
   0.688711E-02   0.960667E+00   0.567893E-01
  -0.233568E-01   0.922986E+00   0.718387E-01
   0.664308E-01   0.974330E+00   0.442000E-01
   0.252222E-01   0.933508E+00   0.442000E-01
  -0.502165E-02   0.895826E+00   0.590530E-01
  -0.279722E-01   0.857757E+00   0.740705E-01
   0.142428E+00   0.102760E+01   0.733208E-01
   0.104311E+00   0.100452E+01   0.587623E-01
   0.494705E-01   0.909591E+00   0.440035E-01
   0.124174E-01   0.865356E+00   0.448544E-01
   0.134800E+00   0.986784E+00   0.449900E-01
   0.906790E-01   0.950414E+00   0.440590E-01
   0.123363E+00   0.924965E+00   0.442000E-01
   0.755187E-01   0.877110E+00   0.442000E-01
  -0.105332E-01   0.827287E+00   0.598719E-01
  -0.289398E-01   0.792392E+00   0.713186E-01
   0.207802E+00   0.102863E+01   0.705617E-01
   0.172917E+00   0.100987E+01   0.595486E-01
   0.204731E+00   0.989579E+00   0.479694E-01
   0.167484E+00   0.961335E+00   0.451311E-01
   0.384657E-01   0.832874E+00   0.450509E-01
   0.923697E-02   0.795405E+00   0.481597E-01
   0.201355E+00   0.935021E+00   0.442000E-01
   0.160369E+00   0.888196E+00   0.442000E-01
   0.112525E+00   0.840340E+00   0.442000E-01
   0.650815E-01   0.799012E+00   0.442000E-01
  -0.916963E-02   0.760511E+00   0.596064E-01
  -0.282890E-01   0.727251E+00   0.661450E-01
   0.272903E+00   0.102813E+01   0.655143E-01
   0.239616E+00   0.100834E+01   0.589826E-01
   0.271992E+00   0.986136E+00   0.498724E-01
   0.238602E+00   0.963265E+00   0.470384E-01
   0.358528E-01   0.761543E+00   0.473088E-01
   0.122751E-01   0.728060E+00   0.507167E-01
   0.195837E+00   0.848639E+00   0.442000E-01
   0.152214E+00   0.804852E+00   0.442000E-01
   0.104770E+00   0.763524E+00   0.442000E-01
   0.604634E-01   0.727984E+00   0.442000E-01
   0.272160E+00   0.938660E+00   0.442000E-01
   0.236823E+00   0.895464E+00   0.442000E-01
   0.337979E+00   0.102795E+01   0.613179E-01
   0.305280E+00   0.100592E+01   0.564041E-01
   0.270328E+00   0.855467E+00   0.442000E-01
   0.233182E+00   0.811146E+00   0.442000E-01
   0.189558E+00   0.767360E+00   0.442000E-01
   0.145108E+00   0.730032E+00   0.442000E-01
  -0.684419E-02   0.694800E+00   0.572554E-01
  -0.280014E-01   0.662134E+00   0.618048E-01
   0.368857E-01   0.694501E+00   0.476079E-01
   0.157199E-01   0.662287E+00   0.507659E-01
   0.337740E+00   0.982481E+00   0.494882E-01
   0.305550E+00   0.961531E+00   0.470341E-01
   0.100801E+00   0.694492E+00   0.442000E-01
   0.599450E-01   0.661390E+00   0.442000E-01
   0.338667E+00   0.938327E+00   0.442000E-01
   0.305664E+00   0.898663E+00   0.442000E-01
   0.267156E+00   0.771532E+00   0.442000E-01
   0.229055E+00   0.733320E+00   0.442000E-01
   0.338351E+00   0.859442E+00   0.442000E-01
   0.304302E+00   0.815853E+00   0.442000E-01
   0.184605E+00   0.695992E+00   0.442000E-01
   0.140676E+00   0.661833E+00   0.442000E-01
  -0.543736E-02   0.629621E+00   0.553153E-01
  -0.281620E-01   0.597179E+00   0.592365E-01
   0.402903E+00   0.102814E+01   0.588633E-01
   0.370439E+00   0.100451E+01   0.544020E-01
   0.387792E-01   0.629177E+00   0.473580E-01
   0.178191E-01   0.597184E+00   0.503061E-01
   0.402850E+00   0.980319E+00   0.488526E-01
   0.370856E+00   0.959278E+00   0.466541E-01
   0.403573E+00   0.936902E+00   0.442000E-01
   0.371354E+00   0.899106E+00   0.442000E-01
   0.998200E-01   0.628731E+00   0.442000E-01
   0.609313E-01   0.596474E+00   0.442000E-01
   0.264141E+00   0.698126E+00   0.442000E-01
   0.225729E+00   0.663383E+00   0.442000E-01
   0.336898E+00   0.774792E+00   0.442000E-01
   0.302242E+00   0.736338E+00   0.442000E-01
   0.181800E+00   0.629225E+00   0.442000E-01
   0.138674E+00   0.596430E+00   0.442000E-01
   0.403686E+00   0.861087E+00   0.442000E-01
   0.370947E+00   0.818381E+00   0.442000E-01
  -0.490558E-02   0.564741E+00   0.542273E-01
  -0.283737E-01   0.532375E+00   0.580912E-01
   0.467685E+00   0.102833E+01   0.577956E-01
   0.435314E+00   0.100395E+01   0.533140E-01
   0.467689E+00   0.979444E+00   0.485104E-01
   0.435566E+00   0.957943E+00   0.463985E-01
   0.335318E+00   0.699981E+00   0.442000E-01
   0.300403E+00   0.665001E+00   0.442000E-01
   0.399712E-01   0.564481E+00   0.471481E-01
   0.186737E-01   0.532367E+00   0.500270E-01
   0.403092E+00   0.776792E+00   0.442000E-01
   0.369974E+00   0.738435E+00   0.442000E-01
   0.261991E+00   0.630258E+00   0.442000E-01
   0.223634E+00   0.597089E+00   0.442000E-01
   0.467956E+00   0.936037E+00   0.442000E-01
   0.435904E+00   0.898882E+00   0.442000E-01
   0.997858E-01   0.564172E+00   0.442000E-01
   0.616355E-01   0.532114E+00   0.442000E-01
   0.468048E+00   0.861606E+00   0.442000E-01
   0.435830E+00   0.819497E+00   0.442000E-01
   0.180508E+00   0.564294E+00   0.442000E-01
   0.137979E+00   0.532058E+00   0.442000E-01
   0.402337E+00   0.701241E+00   0.442000E-01
   0.369021E+00   0.666217E+00   0.442000E-01
   0.334107E+00   0.631236E+00   0.442000E-01
   0.299134E+00   0.597878E+00   0.442000E-01
  -0.479448E-02   0.500000E+00   0.538909E-01
  -0.283737E-01   0.467625E+00   0.580912E-01
   0.532417E+00   0.102833E+01   0.578477E-01
   0.500060E+00   0.100382E+01   0.529920E-01
   0.403380E-01   0.500000E+00   0.470789E-01
   0.186737E-01   0.467633E+00   0.500270E-01
   0.260777E+00   0.564708E+00   0.442000E-01
   0.222667E+00   0.532236E+00   0.442000E-01
   0.532454E+00   0.979458E+00   0.484807E-01
   0.500079E+00   0.957538E+00   0.463119E-01
   0.467905E+00   0.777692E+00   0.442000E-01
   0.435456E+00   0.739597E+00   0.442000E-01
   0.532231E+00   0.936031E+00   0.442000E-01
   0.500100E+00   0.898760E+00   0.442000E-01
   0.998286E-01   0.500000E+00   0.442000E-01
   0.616355E-01   0.467886E+00   0.442000E-01
   0.401739E+00   0.631920E+00   0.442000E-01
   0.368344E+00   0.598489E+00   0.442000E-01
   0.532191E+00   0.861587E+00   0.442000E-01
   0.500122E+00   0.819800E+00   0.442000E-01
   0.180138E+00   0.500000E+00   0.442000E-01
   0.137979E+00   0.467942E+00   0.442000E-01
   0.467692E+00   0.701860E+00   0.442000E-01
   0.435055E+00   0.666945E+00   0.442000E-01
   0.333372E+00   0.565130E+00   0.442000E-01
   0.298500E+00   0.532472E+00   0.442000E-01
   0.532378E+00   0.777679E+00   0.442000E-01
   0.500142E+00   0.739956E+00   0.442000E-01
   0.260391E+00   0.500000E+00   0.442000E-01
   0.222667E+00   0.467764E+00   0.442000E-01
   0.597208E+00   0.102812E+01   0.590110E-01
   0.564811E+00   0.100396E+01   0.533364E-01
  -0.490558E-02   0.435259E+00   0.542273E-01
  -0.281620E-01   0.402821E+00   0.592365E-01
   0.597317E+00   0.980356E+00   0.487458E-01
   0.564607E+00   0.957951E+00   0.463688E-01
   0.399712E-01   0.435519E+00   0.471481E-01
   0.178191E-01   0.402816E+00   0.503061E-01
   0.401370E+00   0.565431E+00   0.442000E-01
   0.367999E+00   0.532658E+00   0.442000E-01
   0.467519E+00   0.632265E+00   0.442000E-01
   0.434764E+00   0.598862E+00   0.442000E-01
   0.997858E-01   0.435828E+00   0.442000E-01
   0.609313E-01   0.403526E+00   0.442000E-01
   0.596665E+00   0.936868E+00   0.442000E-01
   0.564322E+00   0.898858E+00   0.442000E-01
   0.532626E+00   0.701853E+00   0.442000E-01
   0.500156E+00   0.667181E+00   0.442000E-01
   0.333128E+00   0.500000E+00   0.442000E-01
   0.298500E+00   0.467528E+00   0.442000E-01
   0.596625E+00   0.861029E+00   0.442000E-01
   0.564447E+00   0.819465E+00   0.442000E-01
   0.180508E+00   0.435706E+00   0.442000E-01
   0.138674E+00   0.403570E+00   0.442000E-01
   0.597269E+00   0.776757E+00   0.442000E-01
   0.564863E+00   0.739576E+00   0.442000E-01
   0.260777E+00   0.435292E+00   0.442000E-01
   0.223634E+00   0.402911E+00   0.442000E-01
   0.467411E+00   0.565582E+00   0.442000E-01
   0.434616E+00   0.532772E+00   0.442000E-01
   0.662157E+00   0.102792E+01   0.615204E-01
   0.629714E+00   0.100452E+01   0.544204E-01
   0.401245E+00   0.500000E+00   0.442000E-01
   0.367999E+00   0.467342E+00   0.442000E-01
  -0.543736E-02   0.370379E+00   0.553153E-01
  -0.280014E-01   0.337866E+00   0.618048E-01
   0.532823E+00   0.632261E+00   0.442000E-01
   0.500166E+00   0.598985E+00   0.442000E-01
   0.387792E-01   0.370823E+00   0.473580E-01
   0.157199E-01   0.337713E+00   0.507659E-01
   0.662494E+00   0.982509E+00   0.492625E-01
   0.629376E+00   0.959273E+00   0.465770E-01
   0.661703E+00   0.938233E+00   0.442000E-01
   0.628968E+00   0.899039E+00   0.442000E-01
   0.998200E-01   0.371269E+00   0.442000E-01
   0.599450E-01   0.338610E+00   0.442000E-01
   0.598059E+00   0.701223E+00   0.442000E-01
   0.565293E+00   0.666933E+00   0.442000E-01
   0.333372E+00   0.434870E+00   0.442000E-01
   0.299134E+00   0.402122E+00   0.442000E-01
   0.662138E+00   0.859365E+00   0.442000E-01
   0.629447E+00   0.818321E+00   0.442000E-01
   0.181800E+00   0.370775E+00   0.442000E-01
   0.140676E+00   0.338167E+00   0.442000E-01
   0.532945E+00   0.565580E+00   0.442000E-01
   0.500171E+00   0.532810E+00   0.442000E-01
   0.467375E+00   0.500000E+00   0.442000E-01
   0.434616E+00   0.467228E+00   0.442000E-01
   0.663650E+00   0.774759E+00   0.442000E-01
   0.630465E+00   0.738403E+00   0.442000E-01
   0.261991E+00   0.369742E+00   0.442000E-01
   0.225729E+00   0.336617E+00   0.442000E-01
   0.401370E+00   0.434569E+00   0.442000E-01
   0.368344E+00   0.401511E+00   0.442000E-01
   0.598678E+00   0.631909E+00   0.442000E-01
   0.565603E+00   0.598856E+00   0.442000E-01
   0.727289E+00   0.102803E+01   0.656456E-01
   0.694938E+00   0.100591E+01   0.563625E-01
[...]
POINT_DATA  2176
SCALARS  vx_strength  double
LOOKUP_TABLE default
   0.142766E-01
   0.142766E-01
   0.121991E-01
   0.207745E-02
   0.204591E-02
   0.122307E-01
   0.236439E-02
   0.239592E-02
   0.614574E-03
   0.128452E-01
   0.127414E-01
   0.542286E-03
   0.537973E-03
   0.354847E-02
   0.342022E-02
   0.513551E-03
   0.233594E-02
   0.231151E-02
   0.354630E-03
   0.124906E-01
   0.123470E-01
   0.394438E-03
   0.282048E-02
   0.205301E-03
   0.225595E-03
   0.296824E-02
   0.280424E-02
   0.263009E-03
   0.325787E-03
   0.286290E-02
   0.523188E-03
   0.119674E-01
   0.117977E-01
   0.549301E-03
   0.187628E-02
   0.394902E-03
   0.454147E-03
   0.199091E-02
   0.864480E-03
   0.801702E-03
   0.472258E-03
   0.284479E-02
   0.270462E-02
   0.494527E-03
   0.114039E-01
   0.393721E-03
   0.134408E-02
   0.149269E-04
   0.261301E-04
   0.130009E-02
   0.374252E-03
   0.115932E-01
   0.199313E-03
   0.141734E-02
   0.132510E-02
   0.157456E-03
   0.481761E-03
   0.256234E-02
   0.238592E-02
   0.476161E-03
   0.363814E-03
   0.322757E-03
   0.156552E-02
   0.254716E-03
   0.229557E-03
   0.155229E-02
   0.207899E-03
   0.113853E-01
   0.111825E-01
   0.221406E-03
   0.639422E-04
   0.114550E-02
   0.106075E-02
   0.429503E-04
   0.214273E-02
   0.286136E-03
   0.297797E-03
   0.232848E-02
   0.100625E-04
   0.562376E-03
   0.601785E-03
   0.167445E-04
   0.202930E-03
   0.164716E-02
   0.163723E-02
   0.214430E-03
   0.872031E-04
   0.112981E-01
   0.110872E-01
   0.952865E-04
   0.959511E-03
   0.595137E-05
   0.136646E-03
   0.109839E-03
   0.139582E-04
   0.104434E-02
   0.745900E-03
   0.703155E-04
   0.531876E-04
   0.712119E-03
   0.201970E-02
   0.128982E-03
   0.134489E-03
   0.220795E-02
   0.165255E-02
   0.113662E-03
   0.107425E-03
   0.167422E-02
   0.219786E-03
   0.128249E-04
   0.300431E-04
   0.193069E-03
   0.277556E-16
   0.112981E-01
   0.110895E-01
   0.229724E-05
   0.520417E-17
   0.104434E-02
   0.410760E-04
   0.778468E-03
   0.959589E-03
   0.221934E-05
   0.807391E-03
   0.521699E-04
   0.201721E-02
   0.470890E-05
   0.346945E-17
   0.220795E-02
   0.801202E-04
   0.629020E-04
   0.165046E-02
   0.679790E-05
   0.260209E-17
   0.167422E-02
   0.259356E-03
   0.125999E-04
   0.915454E-06
   0.233230E-03
   0.805541E-03
   0.864838E-05
   0.607153E-17
   0.778468E-03
   0.111886E-01
   0.990538E-04
   0.872031E-04
   0.113853E-01
   0.106186E-02
   0.321249E-05
   0.139582E-04
   0.114550E-02
   0.224885E-04
   0.863060E-04
   0.103283E-03
   0.105634E-04
   0.134489E-03
   0.232848E-02
   0.213088E-02
   0.116884E-03
   0.258753E-03
   0.925145E-05
   0.346945E-17
   0.233230E-03
   0.163119E-02
   0.976112E-04
   0.107425E-03
   0.164716E-02
   0.740506E-03
   0.325760E-04
   0.410760E-04
   0.712119E-03
   0.330607E-04
   0.211356E-04
   0.114121E-01
   0.223468E-03
   0.607153E-17
   0.863060E-04
   0.207899E-03
   0.115932E-01
   0.102800E-03
   0.973528E-05
   0.639422E-04
   0.141734E-02
   0.132588E-02
   0.405543E-04
   0.235334E-02
   0.263015E-03
   0.297797E-03
   0.256234E-02
   0.217984E-03
   0.819334E-05
   0.915454E-06
   0.193069E-03
   0.155686E-02
   0.188684E-03
   0.202930E-03
   0.155229E-02
   0.327935E-04
   0.100024E-04
   0.346945E-17
   0.211356E-04
   0.594202E-03
   0.423808E-04
   0.531876E-04
   0.562376E-03
   0.224885E-04
   0.629020E-04
   0.784524E-04
   0.325406E-04
   0.118027E-01
   0.390678E-03
   0.374252E-03
   0.119674E-01
   0.186371E-02
   0.147159E-03
   0.199313E-03
   0.199091E-02
   0.263082E-02
   0.424640E-03
   0.481761E-03
   0.284479E-02
   0.300431E-04
   0.109839E-03
   0.133685E-03
   0.419174E-04
   0.000000E+00
   0.100024E-04
   0.215710E-04
   0.437631E-04
   0.134117E-02
   0.208948E-03
   0.330607E-04
   0.105634E-04
   0.229557E-03
   0.130009E-02
   0.801202E-04
   0.128249E-04
   0.270121E-04
   0.933577E-04
   0.356882E-03
   0.283718E-04
   0.100625E-04
   0.322757E-03
   0.123320E-01
   0.529252E-03
   0.523188E-03
   0.124906E-01
   0.433681E-17
   0.437631E-04
   0.273665E-02
   0.343689E-03
   0.327935E-04
   0.973528E-05
   0.454147E-03
   0.296824E-02
   0.136646E-03
   0.167445E-04
   0.554517E-05
   0.156512E-03
   0.269716E-02
   0.410021E-03
   0.472258E-03
   0.286290E-02
   0.250243E-05
   0.117431E-03
   0.103283E-03
   0.125999E-04
   0.261301E-04
   0.801702E-03
   0.880087E-03
   0.510580E-04
   0.571116E-04
   0.240636E-03
   0.219786E-03
   0.703155E-04
   0.171772E-04
   0.390763E-03
   0.363814E-03
   0.149269E-04
   0.215710E-04
   0.325406E-04
   0.102800E-03
   0.925145E-05
   0.780626E-17
   0.117431E-03
   0.127196E-01
   0.387639E-03
   0.354630E-03
   0.128452E-01
   0.229133E-03
   0.625441E-03
   0.601785E-03
   0.254716E-03
   0.323083E-02
   0.106537E-03
   0.426328E-04
   0.280766E-03
   0.225595E-03
   0.354847E-02
   0.259356E-03
   0.521699E-04
   0.217392E-02
   0.416702E-03
   0.325787E-03
   0.231151E-02
   0.366973E-03
   0.929816E-03
   0.864480E-03
   0.263009E-03
   0.197790E-03
   0.766120E-03
   0.745900E-03
   0.214430E-03
   0.784524E-04
   0.819334E-05
   0.250243E-05
   0.933577E-04
   0.258753E-03
   0.864838E-05
   0.134408E-02
   0.494527E-03
   0.424813E-03
   0.137181E-02
   0.173472E-17
   0.280766E-03
   0.103069E-03
   0.826555E-03
   0.807391E-03
   0.113662E-03
   0.419061E-03
   0.156173E-02
   0.156552E-02
   0.476161E-03
   0.122015E-01
   0.518115E-03
   0.614574E-03
   0.122307E-01
   0.537973E-03
   0.239592E-02
   0.223844E-02
   0.474279E-03
   0.462511E-03
   0.218568E-02
   0.270121E-04
   0.419174E-04
   0.233594E-02
   0.513551E-03
   0.426328E-04
   0.240636E-03
   0.217984E-03
   0.325760E-04
   0.253452E-03
   0.161740E-02
   0.902881E-04
   0.264295E-02
   0.163723E-02
   0.286136E-03
   0.280424E-02
   0.205301E-03
   0.433681E-17
   0.826555E-03
   0.805541E-03
   0.679790E-05
   0.270462E-02
   0.394902E-03
   0.295834E-03
   0.251397E-02
   0.112855E-03
   0.162718E-02
   0.165255E-02
   0.128982E-03
   0.113362E-03
   0.220827E-02
   0.133685E-03
   0.423808E-04
   0.238592E-02
   0.157456E-03
   0.571116E-04
   0.156512E-03
   0.204591E-02
   0.142766E-01
   0.103069E-03
   0.766120E-03
   0.740506E-03
   0.976112E-04
   0.142389E-01
   0.203735E-02
   0.236439E-02
   0.207745E-02
   0.206986E-02
   0.220592E-02
   0.465595E-03
   0.313403E-02
   0.342022E-02
   0.542286E-03
   0.239281E-04
   0.197874E-02
   0.214273E-02
   0.429503E-04
   0.165046E-02
   0.470890E-05
   0.156125E-16
   0.162718E-02
   0.406698E-03
   0.263704E-02
   0.282048E-02
   0.394438E-03
   0.187628E-02
   0.549301E-03
   0.546061E-03
   0.179515E-02
   0.554517E-05
   0.283718E-04
   0.197790E-03
   0.625441E-03
   0.594202E-03
   0.188684E-03
   0.225037E-05
   0.186364E-02
   0.201970E-02
   0.595137E-05
   0.112855E-03
   0.161740E-02
   0.163119E-02
   0.116884E-03
   0.132510E-02
   0.393721E-03
   0.401996E-03
   0.127979E-02
   0.142389E-01
   0.142766E-01
   0.121991E-01
   0.121690E-01
   0.121431E-16
   0.186364E-02
   0.127414E-01
   0.201721E-02
   0.221934E-05
   0.126346E-01
   0.106075E-02
   0.221406E-03
   0.231531E-03
   0.102433E-02
   0.123470E-01
   0.356882E-03
   0.208948E-03
   0.229133E-03
   0.390763E-03
   0.122279E-01
   0.253452E-03
   0.156173E-02
   0.155686E-02
   0.263015E-03
   0.116818E-01
   0.117977E-01
   0.959511E-03
   0.952865E-04
   0.102497E-03
   0.924087E-03
   0.213088E-02
   0.321249E-05
   0.225037E-05
   0.197874E-02
   0.114039E-01
   0.112799E-01
   0.171772E-04
   0.510580E-04
   0.959589E-03
   0.229724E-05
   0.520417E-17
   0.924087E-03
   0.134117E-02
   0.424640E-03
   0.419061E-03
   0.137181E-02
   0.111825E-01
   0.110483E-01
   0.239281E-04
   0.220827E-02
   0.235334E-02
   0.405543E-04
   0.109458E-01
   0.110872E-01
   0.102497E-03
   0.102433E-02
   0.106186E-02
   0.990538E-04
   0.880087E-03
   0.410021E-03
   0.424813E-03
   0.929816E-03
   0.113362E-03
   0.251397E-02
   0.263082E-02
   0.147159E-03
   0.110895E-01
   0.109458E-01
   0.132588E-02
   0.223468E-03
   0.231531E-03
   0.127979E-02
   0.111886E-01
   0.110483E-01
   0.366973E-03
   0.416702E-03
   0.269716E-02
   0.343689E-03
   0.295834E-03
   0.264295E-02
   0.186371E-02
   0.390678E-03
   0.401996E-03
   0.179515E-02
   0.112799E-01
   0.114121E-01
   0.902881E-04
   0.218568E-02
   0.217392E-02
   0.106537E-03
   0.273665E-02
   0.529252E-03
   0.546061E-03
   0.263704E-02
   0.118027E-01
   0.116818E-01
   0.462511E-03
   0.474279E-03
   0.406698E-03
   0.313403E-02
   0.323083E-02
   0.387639E-03
   0.122279E-01
   0.123320E-01
   0.223844E-02
   0.518115E-03
   0.465595E-03
   0.220592E-02
   0.127196E-01
   0.126346E-01
   0.206986E-02
   0.203735E-02
   0.122015E-01
   0.121690E-01
   0.142389E-01
   0.142389E-01
   0.191406E-01
   0.191406E-01
   0.174369E-01
   0.170380E-02
   0.171766E-02
   0.174230E-01
   0.266158E-02
   0.264772E-02
   0.413770E-03
   0.178368E-01
   0.178187E-01
   0.381885E-03
   0.120530E-02
   0.426679E-02
   0.425703E-02
   0.121356E-02
   0.251183E-02
   0.252009E-02
   0.206173E-03
   0.176306E-01
   0.175924E-01
   0.226366E-03
   0.458547E-02
   0.554813E-03
   0.556133E-03
   0.461675E-02
   0.301079E-02
   0.105377E-02
   0.109114E-02
   0.305510E-02
   0.297501E-04
   0.176008E-01
   0.175537E-01
   0.386826E-04
   0.462088E-02
   0.740927E-04
   0.685593E-04
   0.465556E-02
   0.153384E-02
   0.149647E-02
   0.196358E-03
   0.318289E-02
   0.312395E-02
   0.187254E-03
   0.175420E-01
   0.116910E-04
   0.183938E-02
   0.492792E-03
   0.515071E-03
   0.181518E-02
   0.697245E-05
   0.175939E-01
   0.215230E-05
   0.464643E-02
   0.460959E-02
   0.400267E-06
   0.192105E-04
   0.316584E-02
   0.310510E-02
   0.184502E-04
   0.729155E-03
   0.706877E-03
   0.202145E-02
   0.163622E-03
   0.176161E-03
   0.201056E-02
   0.206523E-04
   0.176145E-01
   0.175593E-01
   0.173076E-04
   0.227227E-04
   0.464436E-02
   0.460397E-02
   0.229304E-04
   0.306911E-02
   0.589155E-04
   0.615121E-04
   0.312705E-02
   0.321607E-03
   0.852323E-03
   0.871933E-03
   0.306400E-03
   0.465465E-04
   0.211861E-02
   0.212021E-02
   0.398444E-04
   0.148882E-04
   0.176294E-01
   0.175714E-01
   0.121030E-04
   0.460012E-02
   0.159527E-04
   0.420297E-03
   0.405090E-03
   0.139890E-04
   0.464526E-02
   0.956125E-03
   0.124036E-03
   0.133163E-03
   0.938940E-03
   0.304766E-02
   0.374076E-04
   0.375814E-04
   0.310345E-02
   0.216234E-02
   0.471927E-05
   0.101182E-04
   0.216631E-02
   0.480745E-03
   0.184484E-03
   0.194209E-03
   0.466135E-03
   0.346945E-17
   0.176294E-01
   0.175689E-01
   0.252706E-05
   0.693889E-17
   0.464526E-02
   0.501086E-04
   0.978930E-03
   0.459398E-02
   0.361136E-05
   0.994733E-03
   0.433277E-04
   0.304673E-02
   0.454037E-05
   0.693889E-17
   0.310345E-02
   0.232032E-03
   0.222308E-03
   0.215984E-02
   0.703922E-05
   0.867362E-18
   0.216631E-02
   0.509593E-03
   0.721751E-04
   0.791991E-04
   0.495226E-03
   0.994484E-03
   0.728820E-05
   0.867362E-17
   0.978930E-03
   0.175505E-01
   0.183494E-04
   0.148882E-04
   0.176145E-01
   0.458479E-02
   0.915617E-05
   0.139890E-04
   0.464436E-02
   0.974395E-04
   0.240548E-03
   0.250413E-03
   0.905565E-04
   0.375814E-04
   0.312705E-02
   0.306444E-02
   0.268611E-04
   0.510030E-03
   0.685111E-05
   0.173472E-17
   0.495226E-03
   0.211225E-02
   0.207292E-04
   0.101182E-04
   0.211861E-02
   0.955415E-03
   0.597988E-04
   0.501086E-04
   0.938940E-03
   0.106381E-03
   0.994983E-04
   0.175244E-01
   0.260990E-04
   0.156125E-16
   0.240548E-03
   0.206523E-04
   0.175939E-01
   0.250962E-03
   0.630193E-05
   0.227227E-04
   0.464643E-02
   0.457461E-02
   0.159237E-04
   0.309029E-02
   0.417795E-04
   0.615121E-04
   0.316584E-02
   0.482182E-03
   0.876466E-04
   0.791991E-04
   0.466135E-03
   0.200723E-02
   0.632356E-04
   0.465465E-04
   0.201056E-02
   0.106716E-03
   0.596758E-05
   0.433681E-17
   0.994983E-04
   0.871250E-03
   0.147400E-03
   0.133163E-03
   0.852323E-03
   0.974395E-04
   0.222308E-03
   0.233766E-03
   0.104844E-03
   0.175218E-01
   0.262319E-05
   0.697245E-05
   0.176008E-01
   0.456376E-02
   0.823048E-05
   0.215230E-05
   0.465556E-02
   0.308597E-02
   0.125557E-04
   0.192105E-04
   0.318289E-02
   0.194209E-03
   0.405090E-03
   0.423343E-03
   0.206239E-03
   0.147451E-16
   0.596758E-05
   0.984790E-04
   0.113080E-03
   0.181923E-02
   0.200559E-03
   0.106381E-03
   0.905565E-04
   0.176161E-03
   0.181518E-02
   0.232032E-03
   0.184484E-03
   0.197492E-03
   0.242512E-03
   0.730320E-03
   0.341489E-03
   0.321607E-03
   0.706877E-03
   0.175367E-01
   0.149126E-04
   0.297501E-04
   0.176306E-01
   0.112757E-16
   0.113080E-03
   0.449578E-02
   0.828960E-04
   0.106716E-03
   0.630193E-05
   0.685593E-04
   0.461675E-02
   0.420297E-03
   0.306400E-03
   0.327895E-03
   0.436937E-03
   0.293412E-02
   0.234742E-03
   0.196358E-03
   0.305510E-02
   0.810999E-04
   0.259891E-03
   0.250413E-03
   0.721751E-04
   0.515071E-03
   0.149647E-02
   0.151242E-02
   0.541549E-03
   0.138992E-03
   0.495437E-03
   0.480745E-03
   0.124036E-03
   0.521709E-03
   0.750161E-03
   0.729155E-03
   0.492792E-03
   0.984790E-04
   0.104844E-03
   0.250962E-03
   0.685111E-05
   0.867362E-18
   0.259891E-03
   0.177266E-01
   0.189908E-03
   0.206173E-03
   0.178368E-01
   0.188914E-03
   0.889141E-03
   0.871933E-03
   0.163622E-03
   0.411534E-02
   0.570345E-03
   0.533092E-04
   0.523228E-03
   0.556133E-03
   0.426679E-02
   0.509593E-03
   0.433277E-04
   0.239340E-02
   0.111106E-02
   0.109114E-02
   0.252009E-02
   0.107942E-02
   0.154406E-02
   0.153384E-02
   0.105377E-02
   0.565111E-04
   0.971622E-03
   0.956125E-03
   0.398444E-04
   0.233766E-03
   0.876466E-04
   0.810999E-04
   0.242512E-03
   0.510030E-03
   0.728820E-05
   0.183938E-02
   0.187254E-03
   0.223958E-03
   0.184181E-02
   0.234188E-16
   0.523228E-03
   0.152153E-04
   0.100972E-02
   0.994733E-03
   0.471927E-05
   0.105891E-04
   0.202014E-02
   0.202145E-02
   0.184502E-04
   0.172744E-01
   0.452241E-03
   0.413770E-03
   0.174230E-01
   0.120530E-02
   0.264772E-02
   0.255370E-02
   0.110940E-02
   0.112210E-02
   0.238071E-02
   0.197492E-03
   0.206239E-03
   0.251183E-02
   0.121356E-02
   0.533092E-04
   0.495437E-03
   0.482182E-03
   0.597988E-04
   0.415187E-04
   0.211817E-02
   0.567262E-03
   0.289287E-02
   0.212021E-02
   0.589155E-04
   0.301079E-02
   0.554813E-03
   0.607153E-17
   0.100972E-02
   0.994484E-03
   0.703922E-05
   0.312395E-02
   0.740927E-04
   0.840236E-04
   0.303280E-02
   0.278812E-04
   0.216127E-02
   0.216234E-02
   0.374076E-04
   0.794047E-05
   0.303545E-02
   0.423343E-03
   0.147400E-03
   0.310510E-02
   0.400267E-06
   0.138992E-03
   0.436937E-03
   0.171766E-02
   0.191406E-01
   0.152153E-04
   0.971622E-03
   0.955415E-03
   0.207292E-04
   0.189934E-01
   0.171905E-02
   0.266158E-02
   0.170380E-02
   0.170153E-02
   0.257121E-02
   0.426248E-03
   0.411956E-02
   0.425703E-02
   0.381885E-03
   0.179559E-04
   0.301189E-02
   0.306911E-02
   0.229304E-04
   0.215984E-02
   0.454037E-05
   0.693889E-17
   0.216127E-02
   0.204854E-03
   0.448197E-02
   0.458547E-02
   0.226366E-03
   0.462088E-02
   0.386826E-04
   0.210373E-04
   0.454495E-02
   0.327895E-03
   0.341489E-03
   0.565111E-04
   0.889141E-03
   0.871250E-03
   0.632356E-04
   0.119822E-04
   0.299599E-02
   0.304766E-02
   0.159527E-04
   0.278812E-04
   0.211817E-02
   0.211225E-02
   0.268611E-04
   0.460959E-02
   0.116910E-04
   0.836739E-06
   0.455206E-02
   0.189934E-01
   0.191406E-01
   0.174369E-01
   0.172919E-01
   0.173472E-16
   0.299599E-02
   0.178187E-01
   0.304673E-02
   0.361136E-05
   0.177181E-01
   0.460397E-02
   0.173076E-04
   0.233962E-04
   0.455750E-02
   0.175924E-01
   0.730320E-03
   0.200559E-03
   0.188914E-03
   0.750161E-03
   0.175133E-01
   0.415187E-04
   0.202014E-02
   0.200723E-02
   0.417795E-04
   0.174923E-01
   0.175537E-01
   0.460012E-02
   0.121030E-04
   0.158786E-04
   0.456139E-02
   0.306444E-02
   0.915617E-05
   0.119822E-04
   0.301189E-02
   0.175420E-01
   0.174914E-01
   0.521709E-03
   0.541549E-03
   0.459398E-02
   0.252706E-05
   0.138778E-16
   0.456139E-02
   0.181923E-02
   0.125557E-04
   0.105891E-04
   0.184181E-02
   0.175593E-01
   0.175148E-01
   0.179559E-04
   0.303545E-02
   0.309029E-02
   0.159237E-04
   0.175307E-01
   0.175714E-01
   0.158786E-04
   0.455750E-02
   0.458479E-02
   0.183494E-04
   0.151242E-02
   0.234742E-03
   0.223958E-03
   0.154406E-02
   0.794047E-05
   0.303280E-02
   0.308597E-02
   0.823048E-05
   0.175689E-01
   0.175307E-01
   0.457461E-02
   0.260990E-04
   0.233962E-04
   0.455206E-02
   0.175505E-01
   0.175148E-01
   0.107942E-02
   0.111106E-02
   0.293412E-02
   0.828960E-04
   0.840236E-04
   0.289287E-02
   0.456376E-02
   0.262319E-05
   0.836739E-06
   0.454495E-02
   0.174914E-01
   0.175244E-01
   0.567262E-03
   0.238071E-02
   0.239340E-02
   0.570345E-03
   0.449578E-02
   0.149126E-04
   0.210373E-04
   0.448197E-02
   0.175218E-01
   0.174923E-01
   0.112210E-02
   0.110940E-02
   0.204854E-03
   0.411956E-02
   0.411534E-02
   0.189908E-03
   0.175133E-01
   0.175367E-01
   0.255370E-02
   0.452241E-03
   0.426248E-03
   0.257121E-02
   0.177266E-01
   0.177181E-01
   0.170153E-02
   0.171905E-02
   0.172744E-01
   0.172919E-01
   0.189934E-01
   0.189934E-01
   0.219480E-01
   0.219480E-01
   0.197028E-01
   0.224520E-02
   0.226069E-02
   0.196873E-01
   0.392912E-02
   0.391363E-02
   0.121517E-02
   0.209025E-01
   0.209295E-01
   0.122665E-02
   0.340548E-03
   0.546935E-02
   0.541036E-02
   0.254591E-03
   0.253084E-02
   0.244489E-02
   0.367688E-03
   0.212702E-01
   0.212972E-01
   0.367761E-03
   0.578962E-02
   0.115000E-04
   0.623234E-04
   0.589936E-02
   0.382342E-02
   0.130407E-02
   0.143023E-02
   0.381280E-02
   0.476513E-03
   0.217467E-01
   0.217733E-01
   0.476063E-03
   0.581838E-02
   0.447297E-03
   0.426909E-03
   0.594896E-02
   0.246223E-02
   0.233607E-02
   0.312214E-03
   0.455192E-02
   0.449682E-02
   0.226107E-03
   0.221254E-01
   0.352089E-03
   0.309633E-02
   0.860207E-03
   0.971816E-03
   0.299567E-02
   0.350662E-03
   0.220974E-01
   0.395250E-03
   0.590437E-02
   0.576354E-02
   0.406934E-03
   0.295412E-04
   0.497671E-02
   0.487123E-02
   0.325216E-04
   0.138294E-02
   0.127134E-02
   0.348947E-02
   0.360619E-03
   0.451246E-03
   0.341738E-02
   0.243884E-03
   0.223412E-01
   0.223724E-01
   0.247009E-03
   0.298265E-03
   0.584999E-02
   0.570301E-02
   0.307544E-03
   0.506711E-02
   0.111664E-03
   0.641799E-04
   0.521080E-02
   0.718092E-03
   0.153818E-02
   0.164158E-02
   0.619257E-03
   0.189033E-03
   0.367059E-02