# vtk DataFile Version 2.0
This file was created by Fortran
ASCII
DATASET UNSTRUCTURED_GRID
POINTS  1632  DOUBLE
   0.133155E-01   0.101794E+01   0.937012E-01
  -0.178612E-01   0.986842E+00   0.935505E-01
   0.739464E-01   0.102450E+01   0.857258E-01
   0.352480E-01   0.995932E+00   0.648753E-01
   0.407133E-02   0.964838E+00   0.647246E-01
  -0.245221E-01   0.926181E+00   0.856036E-01
   0.598798E-01   0.979979E+00   0.451638E-01
   0.197225E-01   0.940070E+00   0.453466E-01
  -0.887093E-02   0.901414E+00   0.662256E-01
  -0.308206E-01   0.860498E+00   0.878797E-01
   0.139564E+00   0.103074E+01   0.876892E-01
   0.985782E-01   0.100855E+01   0.660143E-01
   0.427076E-01   0.916840E+00   0.445118E-01
   0.647113E-02   0.871631E+00   0.444642E-01
   0.128342E+00   0.992703E+00   0.443290E-01
   0.828649E-01   0.956748E+00   0.443290E-01
   0.116105E+00   0.930419E+00   0.442000E-01
   0.687924E-01   0.883564E+00   0.442000E-01
  -0.154786E-01   0.830715E+00   0.661183E-01
  -0.334246E-01   0.793193E+00   0.883675E-01
   0.206877E+00   0.103335E+01   0.880000E-01
   0.169328E+00   0.101489E+01   0.660039E-01
   0.201069E+00   0.997421E+00   0.451653E-01
   0.161583E+00   0.966374E+00   0.442000E-01
   0.325560E-01   0.838355E+00   0.441524E-01
   0.133743E-02   0.798967E+00   0.455072E-01
   0.196183E+00   0.937313E+00   0.442000E-01
   0.154794E+00   0.891817E+00   0.442000E-01
   0.107481E+00   0.844962E+00   0.442000E-01
   0.613798E-01   0.803717E+00   0.442000E-01
  -0.166086E-01   0.761445E+00   0.677564E-01
  -0.342667E-01   0.726742E+00   0.884708E-01
   0.273328E+00   0.103421E+01   0.880543E-01
   0.238618E+00   0.101587E+01   0.671614E-01
   0.270699E+00   0.997297E+00   0.464613E-01
   0.235669E+00   0.968360E+00   0.451653E-01
   0.301613E-01   0.764329E+00   0.455549E-01
   0.122795E-02   0.729350E+00   0.472687E-01
   0.192021E+00   0.849832E+00   0.442000E-01
   0.149703E+00   0.807743E+00   0.442000E-01
   0.103602E+00   0.766499E+00   0.442000E-01
   0.593733E-01   0.730653E+00   0.442000E-01
   0.269297E+00   0.938924E+00   0.442000E-01
   0.233410E+00   0.895328E+00   0.442000E-01
   0.338714E+00   0.103477E+01   0.878574E-01
   0.305409E+00   0.101564E+01   0.673542E-01
   0.267835E+00   0.852820E+00   0.442000E-01
   0.231110E+00   0.810810E+00   0.442000E-01
   0.188792E+00   0.768721E+00   0.442000E-01
   0.146486E+00   0.732046E+00   0.442000E-01
  -0.164302E-01   0.694647E+00   0.679831E-01
  -0.348044E-01   0.661341E+00   0.882792E-01
   0.304400E-01   0.695674E+00   0.459138E-01
   0.200007E-02   0.662528E+00   0.476272E-01
   0.337513E+00   0.996430E+00   0.467912E-01
   0.304327E+00   0.967860E+00   0.454960E-01
   0.102257E+00   0.696201E+00   0.442000E-01
   0.593248E-01   0.662708E+00   0.442000E-01
   0.337247E+00   0.938754E+00   0.442000E-01
   0.303723E+00   0.896416E+00   0.442000E-01
   0.266052E+00   0.770758E+00   0.442000E-01
   0.228991E+00   0.733772E+00   0.442000E-01
   0.336817E+00   0.854483E+00   0.442000E-01
   0.302777E+00   0.812768E+00   0.442000E-01
   0.186685E+00   0.697097E+00   0.442000E-01
   0.144645E+00   0.663077E+00   0.442000E-01
  -0.163741E-01   0.629222E+00   0.679234E-01
  -0.352712E-01   0.596588E+00   0.882096E-01
   0.403442E+00   0.103526E+01   0.877836E-01
   0.370817E+00   0.101557E+01   0.672944E-01
   0.308848E-01   0.629563E+00   0.459134E-01
   0.245009E-02   0.597107E+00   0.475460E-01
   0.402919E+00   0.995953E+00   0.467170E-01
   0.370432E+00   0.967324E+00   0.454952E-01
   0.402934E+00   0.938451E+00   0.442000E-01
   0.370341E+00   0.896821E+00   0.442000E-01
   0.101712E+00   0.629585E+00   0.442000E-01
   0.595321E-01   0.597024E+00   0.442000E-01
   0.264560E+00   0.698216E+00   0.442000E-01
   0.227421E+00   0.663934E+00   0.442000E-01
   0.335926E+00   0.772252E+00   0.442000E-01
   0.301621E+00   0.735202E+00   0.442000E-01
   0.185381E+00   0.629913E+00   0.442000E-01
   0.143619E+00   0.597069E+00   0.442000E-01
   0.402831E+00   0.855401E+00   0.442000E-01
   0.369966E+00   0.813968E+00   0.442000E-01
  -0.164470E-01   0.564473E+00   0.678322E-01
  -0.355468E-01   0.532163E+00   0.882029E-01
   0.467839E+00   0.103557E+01   0.877636E-01
   0.435545E+00   0.101565E+01   0.672061E-01
   0.467699E+00   0.995795E+00   0.466131E-01
   0.435421E+00   0.967080E+00   0.454217E-01
   0.335064E+00   0.699149E+00   0.442000E-01
   0.300654E+00   0.664764E+00   0.442000E-01
   0.310974E-01   0.564568E+00   0.458326E-01
   0.260909E-02   0.532310E+00   0.474305E-01
   0.402413E+00   0.773200E+00   0.442000E-01
   0.369369E+00   0.736199E+00   0.442000E-01
   0.263515E+00   0.630481E+00   0.442000E-01
   0.226421E+00   0.597453E+00   0.442000E-01
   0.467706E+00   0.938309E+00   0.442000E-01
   0.435424E+00   0.897031E+00   0.442000E-01
   0.101439E+00   0.564508E+00   0.442000E-01
   0.596410E-01   0.532258E+00   0.442000E-01
   0.467662E+00   0.855823E+00   0.442000E-01
   0.435278E+00   0.814634E+00   0.442000E-01
   0.184659E+00   0.564609E+00   0.442000E-01
   0.143147E+00   0.532250E+00   0.442000E-01
   0.401967E+00   0.699781E+00   0.442000E-01
   0.368828E+00   0.665385E+00   0.442000E-01
   0.334418E+00   0.630999E+00   0.442000E-01
   0.300000E+00   0.597873E+00   0.442000E-01
  -0.164907E-01   0.500000E+00   0.678011E-01
  -0.355468E-01   0.467837E+00   0.882029E-01
   0.532135E+00   0.103561E+01   0.877411E-01
   0.499994E+00   0.101572E+01   0.671705E-01
   0.311527E-01   0.500000E+00   0.457978E-01
   0.260909E-02   0.467690E+00   0.474305E-01
   0.262906E+00   0.564845E+00   0.442000E-01
   0.225938E+00   0.532359E+00   0.442000E-01
   0.532300E+00   0.995808E+00   0.466123E-01
   0.499984E+00   0.967024E+00   0.453914E-01
   0.467517E+00   0.773660E+00   0.442000E-01
   0.435011E+00   0.736782E+00   0.442000E-01
   0.532232E+00   0.938307E+00   0.442000E-01
   0.499944E+00   0.897102E+00   0.442000E-01
   0.101349E+00   0.500000E+00   0.442000E-01
   0.596410E-01   0.467742E+00   0.442000E-01
   0.401619E+00   0.631365E+00   0.442000E-01
   0.368448E+00   0.598201E+00   0.442000E-01
   0.532180E+00   0.855818E+00   0.442000E-01
   0.499901E+00   0.814850E+00   0.442000E-01
   0.184426E+00   0.500000E+00   0.442000E-01
   0.143147E+00   0.467750E+00   0.442000E-01
   0.467360E+00   0.700099E+00   0.442000E-01
   0.434758E+00   0.665761E+00   0.442000E-01
   0.334029E+00   0.565074E+00   0.442000E-01
   0.299675E+00   0.532486E+00   0.442000E-01
   0.532249E+00   0.773665E+00   0.442000E-01
   0.499866E+00   0.736978E+00   0.442000E-01
   0.262706E+00   0.500000E+00   0.442000E-01
   0.225938E+00   0.467641E+00   0.442000E-01
   0.596528E+00   0.103539E+01   0.877118E-01
   0.564441E+00   0.101570E+01   0.671828E-01
  -0.164470E-01   0.435527E+00   0.678322E-01
  -0.352712E-01   0.403412E+00   0.882096E-01
   0.597078E+00   0.995983E+00   0.467012E-01
   0.564547E+00   0.967091E+00   0.454209E-01
   0.310974E-01   0.435432E+00   0.458326E-01
   0.245009E-02   0.402893E+00   0.475460E-01
   0.401405E+00   0.565240E+00   0.442000E-01
   0.368255E+00   0.532588E+00   0.442000E-01
   0.467237E+00   0.631553E+00   0.442000E-01
   0.434577E+00   0.598404E+00   0.442000E-01
   0.101439E+00   0.435492E+00   0.442000E-01
   0.595321E-01   0.402976E+00   0.442000E-01
   0.597009E+00   0.938423E+00   0.442000E-01
   0.564467E+00   0.897023E+00   0.442000E-01
   0.532343E+00   0.700108E+00   0.442000E-01
   0.499839E+00   0.665892E+00   0.442000E-01
   0.333900E+00   0.500000E+00   0.442000E-01
   0.299675E+00   0.467514E+00   0.442000E-01
   0.597020E+00   0.855375E+00   0.442000E-01
   0.564528E+00   0.814633E+00   0.442000E-01
   0.184659E+00   0.435391E+00   0.442000E-01
   0.143619E+00   0.402931E+00   0.442000E-01
   0.597361E+00   0.773212E+00   0.442000E-01
   0.564726E+00   0.736796E+00   0.442000E-01
   0.262906E+00   0.435155E+00   0.442000E-01
   0.226421E+00   0.402547E+00   0.442000E-01
   0.467160E+00   0.565327E+00   0.442000E-01
   0.434484E+00   0.532652E+00   0.442000E-01
   0.661249E+00   0.103499E+01   0.877216E-01
   0.629165E+00   0.101567E+01   0.672302E-01
   0.401334E+00   0.500000E+00   0.442000E-01
   0.368255E+00   0.467412E+00   0.442000E-01
  -0.163741E-01   0.370778E+00   0.679234E-01
  -0.348044E-01   0.338659E+00   0.882792E-01
   0.532418E+00   0.631562E+00   0.442000E-01
   0.499819E+00   0.598476E+00   0.442000E-01
   0.308848E-01   0.370437E+00   0.459134E-01
   0.200007E-02   0.337472E+00   0.476272E-01
   0.662476E+00   0.996436E+00   0.467231E-01
   0.629539E+00   0.967314E+00   0.454803E-01
   0.662699E+00   0.938626E+00   0.442000E-01
   0.629561E+00   0.896774E+00   0.442000E-01
   0.101712E+00   0.370415E+00   0.442000E-01
   0.593248E-01   0.337292E+00   0.442000E-01
   0.597740E+00   0.699808E+00   0.442000E-01
   0.564922E+00   0.665779E+00   0.442000E-01
   0.334029E+00   0.434926E+00   0.442000E-01
   0.300000E+00   0.402127E+00   0.442000E-01
   0.663041E+00   0.854401E+00   0.442000E-01
   0.629853E+00   0.813953E+00   0.442000E-01
   0.185381E+00   0.370087E+00   0.442000E-01
   0.144645E+00   0.336923E+00   0.442000E-01
   0.532464E+00   0.565332E+00   0.442000E-01
   0.499809E+00   0.532675E+00   0.442000E-01
   0.467134E+00   0.500000E+00   0.442000E-01
   0.434484E+00   0.467348E+00   0.442000E-01
   0.663845E+00   0.772264E+00   0.442000E-01
   0.630375E+00   0.736224E+00   0.442000E-01
   0.263515E+00   0.369519E+00   0.442000E-01
   0.227421E+00   0.336066E+00   0.442000E-01
   0.401405E+00   0.434760E+00   0.442000E-01
   0.368448E+00   0.401799E+00   0.442000E-01
   0.598035E+00   0.631389E+00   0.442000E-01
   0.565063E+00   0.598417E+00   0.442000E-01
   0.726616E+00   0.103449E+01   0.878208E-01
   0.694561E+00   0.101575E+01   0.672145E-01
[...]
POINT_DATA  1632
SCALARS  vx_strength  double
LOOKUP_TABLE default
   0.191406E-01
   0.191406E-01
   0.174369E-01
   0.170380E-02
   0.171766E-02
   0.174230E-01
   0.266158E-02
   0.264772E-02
   0.413770E-03
   0.178368E-01
   0.178187E-01
   0.381885E-03
   0.120530E-02
   0.426679E-02
   0.425703E-02
   0.121356E-02
   0.251183E-02
   0.252009E-02
   0.206173E-03
   0.176306E-01
   0.175924E-01
   0.226366E-03
   0.458547E-02
   0.554813E-03
   0.556133E-03
   0.461675E-02
   0.301079E-02
   0.105377E-02
   0.109114E-02
   0.305510E-02
   0.297501E-04
   0.176008E-01
   0.175537E-01
   0.386826E-04
   0.462088E-02
   0.740927E-04
   0.685593E-04
   0.465556E-02
   0.153384E-02
   0.149647E-02
   0.196358E-03
   0.318289E-02
   0.312395E-02
   0.187254E-03
   0.175420E-01
   0.116910E-04
   0.183938E-02
   0.492792E-03
   0.515071E-03
   0.181518E-02
   0.697245E-05
   0.175939E-01
   0.215230E-05
   0.464643E-02
   0.460959E-02
   0.400267E-06
   0.192105E-04
   0.316584E-02
   0.310510E-02
   0.184502E-04
   0.729155E-03
   0.706877E-03
   0.202145E-02
   0.163622E-03
   0.176161E-03
   0.201056E-02
   0.206523E-04
   0.176145E-01
   0.175593E-01
   0.173076E-04
   0.227227E-04
   0.464436E-02
   0.460397E-02
   0.229304E-04
   0.306911E-02
   0.589155E-04
   0.615121E-04
   0.312705E-02
   0.321607E-03
   0.852323E-03
   0.871933E-03
   0.306400E-03
   0.465465E-04
   0.211861E-02
   0.212021E-02
   0.398444E-04
   0.148882E-04
   0.176294E-01
   0.175714E-01
   0.121030E-04
   0.460012E-02
   0.159527E-04
   0.420297E-03
   0.405090E-03
   0.139890E-04
   0.464526E-02
   0.956125E-03
   0.124036E-03
   0.133163E-03
   0.938940E-03
   0.304766E-02
   0.374076E-04
   0.375814E-04
   0.310345E-02
   0.216234E-02
   0.471927E-05
   0.101182E-04
   0.216631E-02
   0.480745E-03
   0.184484E-03
   0.194209E-03
   0.466135E-03
   0.346945E-17
   0.176294E-01
   0.175689E-01
   0.252706E-05
   0.693889E-17
   0.464526E-02
   0.501086E-04
   0.978930E-03
   0.459398E-02
   0.361136E-05
   0.994733E-03
   0.433277E-04
   0.304673E-02
   0.454037E-05
   0.693889E-17
   0.310345E-02
   0.232032E-03
   0.222308E-03
   0.215984E-02
   0.703922E-05
   0.867362E-18
   0.216631E-02
   0.509593E-03
   0.721751E-04
   0.791991E-04
   0.495226E-03
   0.994484E-03
   0.728820E-05
   0.867362E-17
   0.978930E-03
   0.175505E-01
   0.183494E-04
   0.148882E-04
   0.176145E-01
   0.458479E-02
   0.915617E-05
   0.139890E-04
   0.464436E-02
   0.974395E-04
   0.240548E-03
   0.250413E-03
   0.905565E-04
   0.375814E-04
   0.312705E-02
   0.306444E-02
   0.268611E-04
   0.510030E-03
   0.685111E-05
   0.173472E-17
   0.495226E-03
   0.211225E-02
   0.207292E-04
   0.101182E-04
   0.211861E-02
   0.955415E-03
   0.597988E-04
   0.501086E-04
   0.938940E-03
   0.106381E-03
   0.994983E-04
   0.175244E-01
   0.260990E-04
   0.156125E-16
   0.240548E-03
   0.206523E-04
   0.175939E-01
   0.250962E-03
   0.630193E-05
   0.227227E-04
   0.464643E-02
   0.457461E-02
   0.159237E-04
   0.309029E-02
   0.417795E-04
   0.615121E-04
   0.316584E-02
   0.482182E-03
   0.876466E-04
   0.791991E-04
   0.466135E-03
   0.200723E-02
   0.632356E-04
   0.465465E-04
   0.201056E-02
   0.106716E-03
   0.596758E-05
   0.433681E-17
   0.994983E-04
   0.871250E-03
   0.147400E-03
   0.133163E-03
   0.852323E-03
   0.974395E-04
   0.222308E-03
   0.233766E-03
   0.104844E-03
   0.175218E-01
   0.262319E-05
   0.697245E-05
   0.176008E-01
   0.456376E-02
   0.823048E-05
   0.215230E-05
   0.465556E-02
   0.308597E-02
   0.125557E-04
   0.192105E-04
   0.318289E-02
   0.194209E-03
   0.405090E-03
   0.423343E-03
   0.206239E-03
   0.147451E-16
   0.596758E-05
   0.984790E-04
   0.113080E-03
   0.181923E-02
   0.200559E-03
   0.106381E-03
   0.905565E-04
   0.176161E-03
   0.181518E-02
   0.232032E-03
   0.184484E-03
   0.197492E-03
   0.242512E-03
   0.730320E-03
   0.341489E-03
   0.321607E-03
   0.706877E-03
   0.175367E-01
   0.149126E-04
   0.297501E-04
   0.176306E-01
   0.112757E-16
   0.113080E-03
   0.449578E-02
   0.828960E-04
   0.106716E-03
   0.630193E-05
   0.685593E-04
   0.461675E-02
   0.420297E-03
   0.306400E-03
   0.327895E-03
   0.436937E-03
   0.293412E-02
   0.234742E-03
   0.196358E-03
   0.305510E-02
   0.810999E-04
   0.259891E-03
   0.250413E-03
   0.721751E-04
   0.515071E-03
   0.149647E-02
   0.151242E-02
   0.541549E-03
   0.138992E-03
   0.495437E-03
   0.480745E-03
   0.124036E-03
   0.521709E-03
   0.750161E-03
   0.729155E-03
   0.492792E-03
   0.984790E-04
   0.104844E-03
   0.250962E-03
   0.685111E-05
   0.867362E-18
   0.259891E-03
   0.177266E-01
   0.189908E-03
   0.206173E-03
   0.178368E-01
   0.188914E-03
   0.889141E-03
   0.871933E-03
   0.163622E-03
   0.411534E-02
   0.570345E-03
   0.533092E-04
   0.523228E-03
   0.556133E-03
   0.426679E-02
   0.509593E-03
   0.433277E-04
   0.239340E-02
   0.111106E-02
   0.109114E-02
   0.252009E-02
   0.107942E-02
   0.154406E-02
   0.153384E-02
   0.105377E-02
   0.565111E-04
   0.971622E-03
   0.956125E-03
   0.398444E-04
   0.233766E-03
   0.876466E-04
   0.810999E-04
   0.242512E-03
   0.510030E-03
   0.728820E-05
   0.183938E-02
   0.187254E-03
   0.223958E-03
   0.184181E-02
   0.234188E-16
   0.523228E-03
   0.152153E-04
   0.100972E-02
   0.994733E-03
   0.471927E-05
   0.105891E-04
   0.202014E-02
   0.202145E-02
   0.184502E-04
   0.172744E-01
   0.452241E-03
   0.413770E-03
   0.174230E-01
   0.120530E-02
   0.264772E-02
   0.255370E-02
   0.110940E-02
   0.112210E-02
   0.238071E-02
   0.197492E-03
   0.206239E-03
   0.251183E-02
   0.121356E-02
   0.533092E-04
   0.495437E-03
   0.482182E-03
   0.597988E-04
   0.415187E-04
   0.211817E-02
   0.567262E-03
   0.289287E-02
   0.212021E-02
   0.589155E-04
   0.301079E-02
   0.554813E-03
   0.607153E-17
   0.100972E-02
   0.994484E-03
   0.703922E-05
   0.312395E-02
   0.740927E-04
   0.840236E-04
   0.303280E-02
   0.278812E-04
   0.216127E-02
   0.216234E-02
   0.374076E-04
   0.794047E-05
   0.303545E-02
   0.423343E-03
   0.147400E-03
   0.310510E-02
   0.400267E-06
   0.138992E-03
   0.436937E-03
   0.171766E-02
   0.191406E-01
   0.152153E-04
   0.971622E-03
   0.955415E-03
   0.207292E-04
   0.189934E-01
   0.171905E-02
   0.266158E-02
   0.170380E-02
   0.170153E-02
   0.257121E-02
   0.426248E-03
   0.411956E-02
   0.425703E-02
   0.381885E-03
   0.179559E-04
   0.301189E-02
   0.306911E-02
   0.229304E-04
   0.215984E-02
   0.454037E-05
   0.693889E-17
   0.216127E-02
   0.204854E-03
   0.448197E-02
   0.458547E-02
   0.226366E-03
   0.462088E-02
   0.386826E-04
   0.210373E-04
   0.454495E-02
   0.327895E-03
   0.341489E-03
   0.565111E-04
   0.889141E-03
   0.871250E-03
   0.632356E-04
   0.119822E-04
   0.299599E-02
   0.304766E-02
   0.159527E-04
   0.278812E-04
   0.211817E-02
   0.211225E-02
   0.268611E-04
   0.460959E-02
   0.116910E-04
   0.836739E-06
   0.455206E-02
   0.189934E-01
   0.191406E-01
   0.174369E-01
   0.172919E-01
   0.173472E-16
   0.299599E-02
   0.178187E-01
   0.304673E-02
   0.361136E-05
   0.177181E-01
   0.460397E-02
   0.173076E-04
   0.233962E-04
   0.455750E-02
   0.175924E-01
   0.730320E-03
   0.200559E-03
   0.188914E-03
   0.750161E-03
   0.175133E-01
   0.415187E-04
   0.202014E-02
   0.200723E-02
   0.417795E-04
   0.174923E-01
   0.175537E-01
   0.460012E-02
   0.121030E-04
   0.158786E-04
   0.456139E-02
   0.306444E-02
   0.915617E-05
   0.119822E-04
   0.301189E-02
   0.175420E-01
   0.174914E-01
   0.521709E-03
   0.541549E-03
   0.459398E-02
   0.252706E-05
   0.138778E-16
   0.456139E-02
   0.181923E-02
   0.125557E-04
   0.105891E-04
   0.184181E-02
   0.175593E-01
   0.175148E-01
   0.179559E-04
   0.303545E-02
   0.309029E-02
   0.159237E-04
   0.175307E-01
   0.175714E-01
   0.158786E-04
   0.455750E-02
   0.458479E-02
   0.183494E-04
   0.151242E-02
   0.234742E-03
   0.223958E-03
   0.154406E-02
   0.794047E-05
   0.303280E-02
   0.308597E-02
   0.823048E-05
   0.175689E-01
   0.175307E-01
   0.457461E-02
   0.260990E-04
   0.233962E-04
   0.455206E-02
   0.175505E-01
   0.175148E-01
   0.107942E-02
   0.111106E-02
   0.293412E-02
   0.828960E-04
   0.840236E-04
   0.289287E-02
   0.456376E-02
   0.262319E-05
   0.836739E-06
   0.454495E-02
   0.174914E-01
   0.175244E-01
   0.567262E-03
   0.238071E-02
   0.239340E-02
   0.570345E-03
   0.449578E-02
   0.149126E-04
   0.210373E-04
   0.448197E-02
   0.175218E-01
   0.174923E-01
   0.112210E-02
   0.110940E-02
   0.204854E-03
   0.411956E-02
   0.411534E-02
   0.189908E-03
   0.175133E-01
   0.175367E-01
   0.255370E-02
   0.452241E-03
   0.426248E-03
   0.257121E-02
   0.177266E-01
   0.177181E-01
   0.170153E-02
   0.171905E-02
   0.172744E-01
   0.172919E-01
   0.189934E-01
   0.189934E-01
   0.219480E-01
   0.219480E-01
   0.197028E-01
   0.224520E-02
   0.226069E-02
   0.196873E-01
   0.392912E-02
   0.391363E-02
   0.121517E-02
   0.209025E-01
   0.209295E-01
   0.122665E-02
   0.340548E-03
   0.546935E-02
   0.541036E-02
   0.254591E-03
   0.253084E-02
   0.244489E-02
   0.367688E-03
   0.212702E-01
   0.212972E-01
   0.367761E-03
   0.578962E-02
   0.115000E-04
   0.623234E-04
   0.589936E-02
   0.382342E-02
   0.130407E-02
   0.143023E-02
   0.381280E-02
   0.476513E-03
   0.217467E-01
   0.217733E-01
   0.476063E-03
   0.581838E-02
   0.447297E-03
   0.426909E-03
   0.594896E-02
   0.246223E-02
   0.233607E-02
   0.312214E-03
   0.455192E-02
   0.449682E-02
   0.226107E-03
   0.221254E-01
   0.352089E-03
   0.309633E-02
   0.860207E-03
   0.971816E-03
   0.299567E-02
   0.350662E-03
   0.220974E-01
   0.395250E-03
   0.590437E-02
   0.576354E-02
   0.406934E-03
   0.295412E-04
   0.497671E-02
   0.487123E-02
   0.325216E-04
   0.138294E-02
   0.127134E-02
   0.348947E-02
   0.360619E-03
   0.451246E-03
   0.341738E-02
   0.243884E-03
   0.223412E-01
   0.223724E-01
   0.247009E-03
   0.298265E-03
   0.584999E-02
   0.570301E-02
   0.307544E-03
   0.506711E-02
   0.111664E-03
   0.641799E-04
   0.521080E-02
   0.718092E-03
   0.153818E-02
   0.164158E-02
   0.619257E-03
   0.189033E-03
   0.367059E-02
   0.371574E-02
   0.114601E-03
   0.122316E-03
   0.224636E-01
   0.224991E-01
   0.126742E-03
   0.566531E-02
   0.164436E-03
   0.888733E-03
   0.789897E-03
   0.154464E-03
   0.581784E-02
   0.179106E-02
   0.264082E-03
   0.350098E-03
   0.169925E-02
   0.514325E-02
   0.883014E-04
   0.490120E-04
   0.531625E-02
   0.381132E-02
   0.727996E-05
   0.703460E-04
   0.378995E-02
   0.988397E-03
   0.363746E-03
   0.454258E-03
   0.894057E-03
   0.416334E-16
   0.224636E-01
   0.225044E-01
   0.530022E-05
   0.242861E-16
   0.581784E-02
   0.146421E-03
   0.177532E-02
   0.565855E-02
   0.120625E-04
   0.185434E-02
   0.705572E-04
   0.512072E-02
   0.345899E-04
   0.121431E-16
   0.531625E-02
   0.515680E-03
   0.425169E-03
   0.379100E-02
   0.549072E-04
   0.000000E+00
   0.378995E-02
   0.103087E-02
   0.113027E-03
   0.195925E-03
   0.943561E-03
   0.184112E-02
   0.681264E-04
   0.954098E-17
   0.177532E-02
   0.223877E-01
   0.116738E-03
   0.122316E-03
   0.223412E-01
   0.568151E-02
   0.139703E-03
   0.154464E-03
   0.584999E-02
   0.225302E-03
   0.454546E-03
   0.542043E-03
   0.139389E-03
   0.490120E-04
   0.521080E-02
   0.499843E-02
   0.174175E-04
   0.102215E-02
   0.768400E-04
   0.173472E-17
   0.943561E-03
   0.365485E-02
   0.118736E-03
   0.703460E-04
   0.367059E-02
   0.175175E-02
   0.208110E-03
   0.146421E-03
   0.169925E-02
   0.237973E-03
   0.152061E-03
   0.221486E-01
   0.239038E-03
   0.520417E-17
   0.454546E-03
   0.243884E-03
   0.220974E-01
   0.536726E-03
   0.821566E-04
   0.298265E-03
   0.590437E-02
   0.572328E-02
   0.280807E-03
   0.475314E-02
   0.355141E-04
   0.641799E-04
   0.497671E-02
   0.962658E-03
   0.267604E-03
   0.195925E-03
   0.894057E-03
   0.338854E-02
   0.230794E-03
   0.189033E-03
   0.341738E-02
   0.235447E-03
   0.846835E-04
   0.693889E-17
   0.152061E-03
   0.157754E-02
   0.405006E-03
   0.350098E-03
   0.153818E-02
   0.225302E-03
   0.425169E-03
   0.500064E-03
   0.304266E-03
   0.218001E-01
   0.348531E-03
   0.350662E-03
   0.217467E-01
   0.575150E-02
   0.376752E-03
   0.395250E-03
   0.594896E-02
   0.432462E-02
   0.517672E-04
   0.295412E-04
   0.455192E-02
   0.454258E-03
   0.789897E-03
   0.847429E-03
   0.520235E-03
   0.130104E-16
   0.846835E-04
   0.217905E-03
   0.321808E-03
   0.295803E-02
   0.482284E-03
   0.237973E-03
   0.139389E-03
   0.451246E-03
   0.299567E-02
   0.515680E-03
   0.363746E-03
   0.429496E-03
   0.590803E-03
   0.129813E-02
   0.761688E-03
   0.718092E-03
   0.127134E-02
   0.213191E-01
   0.481009E-03
   0.476513E-03
   0.212702E-01
   0.156125E-16
   0.321808E-03
   0.568215E-02
   0.411651E-03
   0.235447E-03
   0.821566E-04
   0.426909E-03
   0.589936E-02
   0.888733E-03
   0.619257E-03
   0.664879E-03
   0.944239E-03
   0.359446E-02
   0.318509E-03
   0.312214E-03
   0.381280E-02
   0.184278E-03
   0.624430E-03
   0.542043E-03
   0.113027E-03
   0.971816E-03
   0.233607E-02
   0.229614E-02
   0.980392E-03
   0.318846E-03
   0.105489E-02
   0.988397E-03
   0.264082E-03
   0.876291E-03
   0.140223E-02
   0.138294E-02
   0.860207E-03
   0.217905E-03
   0.304266E-03
   0.536726E-03
   0.768400E-04
   0.780626E-17
   0.624430E-03
   0.209314E-01
   0.387715E-03
   0.367688E-03
   0.209025E-01
   0.394100E-03
   0.167301E-02
   0.164158E-02
   0.360619E-03
   0.524538E-02
   0.490461E-04
   0.131891E-03
   0.110727E-02
   0.623234E-04
   0.546935E-02
   0.103087E-02
   0.705572E-04
   0.226617E-02
   0.137734E-02
   0.143023E-02
   0.244489E-02
   0.127425E-02
   0.239923E-02
   0.246223E-02
   0.130407E-02
   0.156632E-03
   0.183523E-02
   0.179106E-02
   0.114601E-03
   0.500064E-03
   0.267604E-03
   0.184278E-03
   0.590803E-03
   0.102215E-02
   0.681264E-04
   0.309633E-02
   0.226107E-03
   0.238608E-03
   0.303692E-02
   0.433681E-17
   0.110727E-02
   0.555728E-04
   0.191154E-02
   0.185434E-02
   0.727996E-05
   0.815008E-05
   0.343917E-02
   0.348947E-02
   0.325216E-04
   0.196720E-01
   0.125940E-02
   0.121517E-02
   0.196873E-01
   0.340548E-03
   0.391363E-02
   0.374071E-02
   0.245275E-03
   0.173074E-03
   0.233837E-02
   0.429496E-03
   0.520235E-03
   0.253084E-02
   0.254591E-03
   0.131891E-03
   0.105489E-02
   0.962658E-03
   0.208110E-03
   0.827235E-04
   0.367852E-02
   0.716351E-05
   0.360545E-02
   0.371574E-02
   0.111664E-03
   0.382342E-02
   0.115000E-04
   0.000000E+00
   0.191154E-02
   0.184112E-02
   0.549072E-04
   0.449682E-02
   0.447297E-03
   0.433054E-03
   0.427712E-02
   0.567331E-04
   0.379083E-02
   0.381132E-02
   0.883014E-04
   0.389877E-03
   0.465884E-02
   0.847429E-03
   0.405006E-03
   0.487123E-02
   0.406934E-03
   0.318846E-03
   0.944239E-03
   0.226069E-02
   0.219480E-01
   0.555728E-04
   0.183523E-02
   0.175175E-02
   0.118736E-03
   0.218597E-01
   0.218769E-02
   0.392912E-02
   0.224520E-02
   0.217265E-02
   0.375574E-02
   0.127010E-02
   0.519891E-02
   0.541036E-02
   0.122665E-02
   0.291471E-03
   0.486759E-02
   0.506711E-02
   0.307544E-03
   0.379100E-02
   0.345899E-04
   0.156125E-16
   0.379083E-02
   0.387491E-03
   0.559356E-02
   0.578962E-02
   0.367761E-03
   0.581838E-02
   0.476063E-03
   0.481335E-03
   0.564184E-02
   0.664879E-03
   0.761688E-03
   0.156632E-03
   0.167301E-02
   0.157754E-02
   0.230794E-03
   0.150385E-03
   0.496124E-02
   0.514325E-02
   0.164436E-03
   0.567331E-04
   0.367852E-02
   0.365485E-02
   0.174175E-04
   0.576354E-02
   0.352089E-03
   0.350466E-03
   0.560243E-02
   0.218597E-01
   0.219480E-01
   0.197028E-01
   0.196870E-01
   0.138778E-16
   0.496124E-02
   0.209295E-01
   0.512072E-02
   0.120625E-04
   0.209571E-01
   0.570301E-02
   0.247009E-03
   0.242545E-03
   0.555351E-02
   0.212972E-01
   0.129813E-02
   0.482284E-03
   0.394100E-03
   0.140223E-02
   0.213446E-01
   0.827235E-04
   0.343917E-02
   0.338854E-02
   0.355141E-04
   0.218259E-01
   0.217733E-01
   0.566531E-02
   0.126742E-03
   0.121356E-03
   0.552448E-02
   0.499843E-02
   0.139703E-03
   0.150385E-03
   0.486759E-02
   0.221254E-01
   0.221764E-01
   0.876291E-03
   0.980392E-03
   0.565855E-02
   0.530022E-05
   0.381639E-16
   0.552448E-02
   0.295803E-02
   0.517672E-04
   0.815008E-05
   0.303692E-02
   0.223724E-01
   0.224190E-01
   0.291471E-03
   0.465884E-02
   0.475314E-02
   0.280807E-03
   0.225403E-01
   0.224991E-01
   0.121356E-03
   0.555351E-02
   0.568151E-02
   0.116738E-03
   0.229614E-02
   0.318509E-03
   0.238608E-03
   0.239923E-02
   0.389877E-03
   0.427712E-02
   0.432462E-02
   0.376752E-03
   0.225044E-01
   0.225403E-01
   0.572328E-02
   0.239038E-03
   0.242545E-03
   0.560243E-02
   0.223877E-01
   0.224190E-01
   0.127425E-02
   0.137734E-02
   0.359446E-02
   0.411651E-03
   0.433054E-03
   0.360545E-02
   0.575150E-02
   0.348531E-03
   0.350466E-03
   0.564184E-02
   0.221764E-01
   0.221486E-01
   0.716351E-05
   0.233837E-02
   0.226617E-02
   0.490461E-04
   0.568215E-02
   0.481009E-03
   0.481335E-03
   0.559356E-02
   0.218001E-01
   0.218259E-01
   0.173074E-03
   0.245275E-03
   0.387491E-03
   0.519891E-02
   0.524538E-02
   0.387715E-03
   0.213446E-01
   0.213191E-01
   0.374071E-02
   0.125940E-02
   0.127010E-02
   0.375574E-02
   0.209314E-01
   0.209571E-01
   0.217265E-02
   0.218769E-02
   0.196720E-01
   0.196870E-01
   0.218597E-01
   0.218597E-01
   0.245275E-01
   0.245275E-01
   0.248385E-01
   0.310971E-03
   0.635732E-03
   0.251632E-01
   0.190896E-02
   0.158420E-02
   0.319579E-02
   0.283590E-01
   0.278791E-01
   0.304058E-02
   0.376218E-02
   0.215059E-02
   0.248412E-02
   0.361574E-02
   0.452277E-02
   0.437633E-02
   0.159001E-02
   0.299490E-01
   0.293604E-01
   0.148134E-02
   0.292113E-02
   0.191835E-02
   0.202489E-02
   0.258547E-02
   0.499458E-02
   0.239017E-02
   0.250320E-02
   0.485465E-02
   0.123104E-02
   0.311801E-01
   0.305108E-01
   0.115044E-02
   0.320401E-02
   0.143332E-02
   0.151425E-02
   0.286867E-02
   0.283516E-02
   0.272213E-02
   0.186795E-02
   0.520835E-02
   0.534089E-02
   0.177963E-02
   0.312655E-01
   0.754697E-03
   0.308149E-02
   0.202596E-02
   0.211656E-02
   0.297073E-02
   0.817140E-03
   0.319972E-01
   0.100932E-02
   0.306085E-02
   0.339366E-02
   0.944348E-03
   0.124912E-02
   0.544815E-02
   0.557255E-02
   0.117601E-02
   0.230668E-02
   0.221608E-02
   0.325043E-02
   0.134495E-02
   0.142211E-02
   0.314373E-02
   0.516492E-03
   0.325137E-01
   0.317334E-01
   0.467866E-03
   0.634562E-03
   0.317892E-02
   0.350723E-02
   0.581435E-03
   0.571475E-02
   0.723634E-03
   0.785313E-03
   0.559890E-02
   0.155662E-02
   0.235059E-02
   0.243924E-02
   0.147750E-02
   0.895060E-03
   0.325347E-02