# vtk DataFile Version 2.0
This file was created by Fortran
ASCII
DATASET UNSTRUCTURED_GRID
POINTS  5440  DOUBLE
   0.269271E-02   0.103083E+01   0.710957E-01
  -0.308803E-01   0.997195E+00   0.715236E-01
   0.682501E-01   0.103260E+01   0.606700E-01
   0.288533E-01   0.100464E+01   0.528205E-01
  -0.471968E-02   0.971007E+00   0.532484E-01
  -0.325629E-01   0.931733E+00   0.616246E-01
   0.604834E-01   0.974771E+00   0.442000E-01
   0.249602E-01   0.939481E+00   0.442000E-01
  -0.288301E-02   0.900207E+00   0.525762E-01
  -0.292226E-01   0.862559E+00   0.613641E-01
   0.137507E+00   0.102973E+01   0.603043E-01
   0.998801E-01   0.100273E+01   0.520495E-01
   0.610999E-01   0.903426E+00   0.442000E-01
   0.279155E-01   0.866578E+00   0.442000E-01
   0.133584E+00   0.971997E+00   0.442000E-01
   0.966231E-01   0.938715E+00   0.442000E-01
   0.131571E+00   0.904957E+00   0.442000E-01
   0.949992E-01   0.868483E+00   0.442000E-01
   0.157589E-02   0.828929E+00   0.529879E-01
  -0.257037E-01   0.794891E+00   0.620271E-01
   0.205141E+00   0.102814E+01   0.606236E-01
   0.171211E+00   0.999001E+00   0.524548E-01
   0.203621E+00   0.970494E+00   0.442000E-01
   0.168532E+00   0.938238E+00   0.442000E-01
   0.618148E-01   0.831635E+00   0.442000E-01
   0.302725E-01   0.796535E+00   0.442000E-01
   0.200796E+00   0.907405E+00   0.442000E-01
   0.164571E+00   0.871974E+00   0.442000E-01
   0.127999E+00   0.835499E+00   0.442000E-01
   0.926639E-01   0.799314E+00   0.442000E-01
   0.299294E-02   0.762496E+00   0.532392E-01
  -0.271361E-01   0.729833E+00   0.588779E-01
   0.270085E+00   0.103220E+01   0.569362E-01
   0.237551E+00   0.999630E+00   0.523688E-01
   0.269510E+00   0.970369E+00   0.442000E-01
   0.235885E+00   0.939661E+00   0.442000E-01
   0.611216E-01   0.764214E+00   0.442000E-01
   0.314683E-01   0.730436E+00   0.442000E-01
   0.197032E+00   0.839062E+00   0.442000E-01
   0.160978E+00   0.803006E+00   0.442000E-01
   0.125643E+00   0.766820E+00   0.442000E-01
   0.929279E-01   0.731894E+00   0.442000E-01
   0.268064E+00   0.907456E+00   0.442000E-01
   0.233258E+00   0.874493E+00   0.442000E-01
   0.334315E+00   0.104099E+01   0.492983E-01
   0.302044E+00   0.100294E+01   0.487675E-01
   0.265953E+00   0.839569E+00   0.442000E-01
   0.230952E+00   0.805172E+00   0.442000E-01
   0.194898E+00   0.769116E+00   0.442000E-01
   0.160568E+00   0.734042E+00   0.442000E-01
   0.133931E-02   0.697773E+00   0.498387E-01
  -0.353503E-01   0.665593E+00   0.500464E-01
   0.632746E-01   0.698116E+00   0.442000E-01
   0.329867E-01   0.665520E+00   0.442000E-01
   0.334253E+00   0.969450E+00   0.442000E-01
   0.301688E+00   0.938164E+00   0.442000E-01
   0.127853E+00   0.699116E+00   0.442000E-01
   0.960101E-01   0.665348E+00   0.442000E-01
   0.334395E+00   0.904501E+00   0.442000E-01
   0.300759E+00   0.872533E+00   0.442000E-01
   0.264589E+00   0.769905E+00   0.442000E-01
   0.230171E+00   0.735438E+00   0.442000E-01
   0.333598E+00   0.837570E+00   0.442000E-01
   0.299590E+00   0.804303E+00   0.442000E-01
   0.195841E+00   0.700364E+00   0.442000E-01
   0.162601E+00   0.666293E+00   0.442000E-01
  -0.370290E-02   0.633340E+00   0.444077E-01
  -0.453941E-01   0.600567E+00   0.423670E-01
   0.399519E+00   0.104978E+01   0.454911E-01
   0.366523E+00   0.100750E+01   0.447308E-01
   0.657223E-01   0.632753E+00   0.442000E-01
   0.342869E-01   0.600362E+00   0.442000E-01
   0.399523E+00   0.968754E+00   0.442000E-01
   0.366960E+00   0.935786E+00   0.442000E-01
   0.400358E+00   0.901155E+00   0.442000E-01
   0.367234E+00   0.869538E+00   0.442000E-01
   0.130758E+00   0.632526E+00   0.442000E-01
   0.992133E-01   0.599362E+00   0.442000E-01
   0.264488E+00   0.701084E+00   0.442000E-01
   0.230705E+00   0.667108E+00   0.442000E-01
   0.332861E+00   0.769354E+00   0.442000E-01
   0.298906E+00   0.735552E+00   0.442000E-01
   0.197465E+00   0.633037E+00   0.442000E-01
   0.164518E+00   0.599525E+00   0.442000E-01
   0.400367E+00   0.835531E+00   0.442000E-01
   0.366869E+00   0.802621E+00   0.442000E-01
  -0.740435E-02   0.567589E+00   0.442000E-01
  -0.506315E-01   0.533829E+00   0.403765E-01
   0.466302E+00   0.105443E+01   0.474508E-01
   0.432518E+00   0.101103E+01   0.449603E-01
   0.466302E+00   0.968883E+00   0.442000E-01
   0.432921E+00   0.934122E+00   0.442000E-01
   0.332524E+00   0.701216E+00   0.442000E-01
   0.298779E+00   0.667479E+00   0.442000E-01
   0.677779E-01   0.566971E+00   0.442000E-01
   0.351876E-01   0.533760E+00   0.442000E-01
   0.400056E+00   0.768476E+00   0.442000E-01
   0.366479E+00   0.735018E+00   0.442000E-01
   0.264996E+00   0.633503E+00   0.442000E-01
   0.231537E+00   0.599930E+00   0.442000E-01
   0.466729E+00   0.898929E+00   0.442000E-01
   0.433490E+00   0.867148E+00   0.442000E-01
   0.132973E+00   0.566361E+00   0.442000E-01
   0.101367E+00   0.533211E+00   0.442000E-01
   0.466882E+00   0.834399E+00   0.442000E-01
   0.433554E+00   0.801387E+00   0.442000E-01
   0.198590E+00   0.566418E+00   0.442000E-01
   0.165534E+00   0.533150E+00   0.442000E-01
   0.399836E+00   0.701026E+00   0.442000E-01
   0.366263E+00   0.667489E+00   0.442000E-01
   0.332518E+00   0.633751E+00   0.442000E-01
   0.298962E+00   0.600195E+00   0.442000E-01
  -0.803955E-02   0.500000E+00   0.442000E-01
  -0.506315E-01   0.466171E+00   0.403765E-01
   0.533774E+00   0.105463E+01   0.478905E-01
   0.500086E+00   0.101228E+01   0.466906E-01
   0.687762E-01   0.500000E+00   0.442000E-01
   0.351876E-01   0.466240E+00   0.442000E-01
   0.265503E+00   0.566622E+00   0.442000E-01
   0.232061E+00   0.533268E+00   0.442000E-01
   0.533892E+00   0.969177E+00   0.442000E-01
   0.500111E+00   0.933690E+00   0.442000E-01
   0.466814E+00   0.767927E+00   0.442000E-01
   0.433412E+00   0.734484E+00   0.442000E-01
   0.533492E+00   0.899008E+00   0.442000E-01
   0.500121E+00   0.866179E+00   0.442000E-01
   0.133928E+00   0.500000E+00   0.442000E-01
   0.101367E+00   0.466789E+00   0.442000E-01
   0.399723E+00   0.633829E+00   0.442000E-01
   0.366197E+00   0.600321E+00   0.442000E-01
   0.533397E+00   0.834423E+00   0.442000E-01
   0.500141E+00   0.800939E+00   0.442000E-01
   0.199006E+00   0.500000E+00   0.442000E-01
   0.165534E+00   0.466850E+00   0.442000E-01
   0.466746E+00   0.700845E+00   0.442000E-01
   0.433296E+00   0.667366E+00   0.442000E-01
   0.332641E+00   0.566764E+00   0.442000E-01
   0.299149E+00   0.533354E+00   0.442000E-01
   0.533493E+00   0.767962E+00   0.442000E-01
   0.500147E+00   0.734289E+00   0.442000E-01
   0.265707E+00   0.500000E+00   0.442000E-01
   0.232061E+00   0.466732E+00   0.442000E-01
   0.600472E+00   0.105007E+01   0.463405E-01
   0.567580E+00   0.101152E+01   0.453999E-01
  -0.740435E-02   0.432411E+00   0.442000E-01
  -0.453941E-01   0.399433E+00   0.423670E-01
   0.600604E+00   0.969248E+00   0.442000E-01
   0.567273E+00   0.934495E+00   0.442000E-01
   0.677779E-01   0.433029E+00   0.442000E-01
   0.342869E-01   0.399638E+00   0.442000E-01
   0.399694E+00   0.566849E+00   0.442000E-01
   0.366202E+00   0.533410E+00   0.442000E-01
   0.466690E+00   0.633839E+00   0.442000E-01
   0.433220E+00   0.600357E+00   0.442000E-01
   0.132973E+00   0.433639E+00   0.442000E-01
   0.992133E-01   0.400638E+00   0.442000E-01
   0.599884E+00   0.901265E+00   0.442000E-01
   0.566768E+00   0.867251E+00   0.442000E-01
   0.533551E+00   0.700883E+00   0.442000E-01
   0.500140E+00   0.667318E+00   0.442000E-01
   0.332709E+00   0.500000E+00   0.442000E-01
   0.299149E+00   0.466646E+00   0.442000E-01
   0.599942E+00   0.835569E+00   0.442000E-01
   0.566748E+00   0.801446E+00   0.442000E-01
   0.198590E+00   0.433582E+00   0.442000E-01
   0.164518E+00   0.400475E+00   0.442000E-01
   0.600275E+00   0.768572E+00   0.442000E-01
   0.566897E+00   0.734557E+00   0.442000E-01
   0.265503E+00   0.433378E+00   0.442000E-01
   0.231537E+00   0.400070E+00   0.442000E-01
   0.466660E+00   0.566888E+00   0.442000E-01
   0.433187E+00   0.533439E+00   0.442000E-01
   0.665635E+00   0.104101E+01   0.498068E-01
   0.633496E+00   0.100780E+01   0.451406E-01
   0.399695E+00   0.500000E+00   0.442000E-01
   0.366202E+00   0.466590E+00   0.442000E-01
  -0.370290E-02   0.366660E+00   0.444077E-01
  -0.353503E-01   0.334407E+00   0.500464E-01
   0.533587E+00   0.633866E+00   0.442000E-01
   0.500131E+00   0.600370E+00   0.442000E-01
   0.657223E-01   0.367247E+00   0.442000E-01
   0.329867E-01   0.334480E+00   0.442000E-01
   0.665835E+00   0.969568E+00   0.442000E-01
   0.633215E+00   0.936018E+00   0.442000E-01
   0.665842E+00   0.904362E+00   0.442000E-01
   0.633058E+00   0.869582E+00   0.442000E-01
   0.130758E+00   0.367474E+00   0.442000E-01
   0.960101E-01   0.334652E+00   0.442000E-01
   0.600486E+00   0.701136E+00   0.442000E-01
   0.566998E+00   0.667431E+00   0.442000E-01
   0.332641E+00   0.433236E+00   0.442000E-01
   0.298962E+00   0.399805E+00   0.442000E-01
   0.666705E+00   0.837483E+00   0.442000E-01
   0.633468E+00   0.802694E+00   0.442000E-01
   0.197465E+00   0.366963E+00   0.442000E-01
   0.162601E+00   0.333707E+00   0.442000E-01
   0.533601E+00   0.566902E+00   0.442000E-01
   0.500125E+00   0.533450E+00   0.442000E-01
   0.466652E+00   0.500000E+00   0.442000E-01
   0.433187E+00   0.466561E+00   0.442000E-01
   0.667466E+00   0.769460E+00   0.442000E-01
   0.633864E+00   0.735151E+00   0.442000E-01
   0.264996E+00   0.366497E+00   0.442000E-01
   0.230705E+00   0.332892E+00   0.442000E-01
   0.399694E+00   0.433151E+00   0.442000E-01
   0.366197E+00   0.399679E+00   0.442000E-01
   0.600581E+00   0.633908E+00   0.442000E-01
   0.567057E+00   0.600397E+00   0.442000E-01
   0.729878E+00   0.103191E+01   0.569387E-01
   0.697973E+00   0.100277E+01   0.488662E-01
[...]
POINT_DATA  5440
SCALARS  vx_strength  double
LOOKUP_TABLE default
   0.897246E-02
   0.897246E-02
   0.719007E-02
   0.178238E-02
   0.177787E-02
   0.719459E-02
   0.148431E-02
   0.148883E-02
   0.334099E-03
   0.752869E-02
   0.754726E-02
   0.357183E-03
   0.446748E-03
   0.137618E-02
   0.137365E-02
   0.467849E-03
   0.155009E-03
   0.176110E-03
   0.317652E-03
   0.784634E-02
   0.792168E-02
   0.374418E-03
   0.140467E-02
   0.343397E-03
   0.337409E-03
   0.135642E-02
   0.190035E-03
   0.164717E-05
   0.183849E-04
   0.179684E-03
   0.732936E-05
   0.785367E-02
   0.796861E-02
   0.469347E-04
   0.140738E-02
   0.442205E-04
   0.329211E-04
   0.133083E-02
   0.183675E-03
   0.166937E-03
   0.672218E-05
   0.205883E-03
   0.221613E-03
   0.126425E-04
   0.746342E-02
   0.505187E-03
   0.308759E-03
   0.112442E-03
   0.117983E-03
   0.291642E-03
   0.458548E-03
   0.739512E-02
   0.816848E-04
   0.953968E-03
   0.107166E-02
   0.169467E-03
   0.845551E-04
   0.208753E-03
   0.178074E-03
   0.125929E-03
   0.175081E-03
   0.169539E-03
   0.239105E-03
   0.562745E-04
   0.298909E-04
   0.236978E-03
   0.918104E-03
   0.647702E-02
   0.660217E-02
   0.861248E-03
   0.328313E-03
   0.364178E-03
   0.665525E-03
   0.455110E-03
   0.949924E-04
   0.182043E-03
   0.121443E-03
   0.188343E-05
   0.609582E-04
   0.200607E-03
   0.194346E-03
   0.755393E-04
   0.337713E-04
   0.149306E-03
   0.116001E-03
   0.589401E-04
   0.726967E-03
   0.575005E-02
   0.611667E-02
   0.485502E-03
   0.777434E-03
   0.597411E-03
   0.920452E-04
   0.106626E-03
   0.483934E-03
   0.121145E-03
   0.165580E-03
   0.301738E-04
   0.203415E-04
   0.187177E-03
   0.552689E-03
   0.139714E-03
   0.103757E-03
   0.378294E-03
   0.442417E-04
   0.679542E-04
   0.488030E-04
   0.943523E-04
   0.998896E-04
   0.380182E-04
   0.359606E-04
   0.122245E-03
   0.294903E-16
   0.575005E-02
   0.616497E-02
   0.482986E-04
   0.555112E-16
   0.121145E-03
   0.158348E-04
   0.154209E-03
   0.818767E-03
   0.696553E-05
   0.118549E-03
   0.209236E-04
   0.554471E-03
   0.874734E-05
   0.156125E-16
   0.378294E-03
   0.657251E-04
   0.677827E-04
   0.418348E-04
   0.111542E-04
   0.130104E-16
   0.943523E-04
   0.980602E-04
   0.190942E-04
   0.179372E-04
   0.124348E-03
   0.118648E-03
   0.110549E-04
   0.346945E-17
   0.154209E-03
   0.668325E-02
   0.518284E-03
   0.726967E-03
   0.647702E-02
   0.730394E-03
   0.606657E-03
   0.483934E-03
   0.364178E-03
   0.315996E-04
   0.814451E-04
   0.795268E-04
   0.328959E-04
   0.103757E-03
   0.188343E-05
   0.105239E-03
   0.157424E-03
   0.100401E-03
   0.871398E-05
   0.173472E-17
   0.124348E-03
   0.105393E-03
   0.938658E-04
   0.488030E-04
   0.149306E-03
   0.169979E-03
   0.425352E-04
   0.158348E-04
   0.187177E-03
   0.413086E-04
   0.426049E-04
   0.751911E-02
   0.835857E-03
   0.693889E-17
   0.814451E-04
   0.918104E-03
   0.739512E-02
   0.817889E-04
   0.645191E-05
   0.328313E-03
   0.953968E-03
   0.108699E-02
   0.479260E-03
   0.157515E-03
   0.216506E-03
   0.121443E-03
   0.208753E-03
   0.109992E-03
   0.329446E-04
   0.179372E-04
   0.122245E-03
   0.227992E-03
   0.939070E-04
   0.337713E-04
   0.236978E-03
   0.423865E-04
   0.537398E-05
   0.173472E-17
   0.426049E-04
   0.203431E-03
   0.604547E-04
   0.203415E-04
   0.200607E-03
   0.315996E-04
   0.677827E-04
   0.726330E-04
   0.421005E-04
   0.800659E-02
   0.487478E-03
   0.458548E-03
   0.785367E-02
   0.138017E-02
   0.194297E-03
   0.816848E-04
   0.133083E-02
   0.193238E-03
   0.158574E-03
   0.845551E-04
   0.205883E-03
   0.359606E-04
   0.106626E-03
   0.109252E-03
   0.611944E-04
   0.520417E-17
   0.537398E-05
   0.360985E-04
   0.483885E-04
   0.297395E-03
   0.891710E-04
   0.413086E-04
   0.328959E-04
   0.298909E-04
   0.291642E-03
   0.657251E-04
   0.380182E-04
   0.503415E-04
   0.834859E-04
   0.194018E-03
   0.985846E-04
   0.609582E-04
   0.169539E-03
   0.797767E-02
   0.289155E-04
   0.732936E-05
   0.784634E-02
   0.260209E-17
   0.483885E-04
   0.136490E-02
   0.136472E-04
   0.423865E-04
   0.645191E-05
   0.329211E-04
   0.135642E-02
   0.920452E-04
   0.755393E-04
   0.980615E-04
   0.109775E-03
   0.153369E-03
   0.262219E-04
   0.672218E-05
   0.179684E-03
   0.252806E-04
   0.943039E-04
   0.795268E-04
   0.190942E-04
   0.117983E-03
   0.166937E-03
   0.171851E-03
   0.151766E-03
   0.487292E-04
   0.111387E-03
   0.998896E-04
   0.301738E-04
   0.153149E-03
   0.192634E-03
   0.175081E-03
   0.112442E-03
   0.360985E-04
   0.421005E-04
   0.817889E-04
   0.871398E-05
   0.164799E-16
   0.943039E-04
   0.764019E-02
   0.337487E-03
   0.317652E-03
   0.752869E-02
   0.866443E-04
   0.204051E-03
   0.194346E-03
   0.562745E-04
   0.138068E-02
   0.353265E-03
   0.315726E-04
   0.105095E-03
   0.337409E-03
   0.137618E-02
   0.980602E-04
   0.209236E-04
   0.181879E-03
   0.180168E-04
   0.183849E-04
   0.176110E-03
   0.243211E-05
   0.156266E-03
   0.183675E-03
   0.164717E-05
   0.740342E-04
   0.178746E-03
   0.165580E-03
   0.589401E-04
   0.726330E-04
   0.329446E-04
   0.252806E-04
   0.834859E-04
   0.100401E-03
   0.110549E-04
   0.308759E-03
   0.126425E-04
   0.347945E-04
   0.274621E-03
   0.130104E-16
   0.105095E-03
   0.716679E-04
   0.138651E-03
   0.118549E-03
   0.679542E-04
   0.151403E-03
   0.209863E-03
   0.239105E-03
   0.125929E-03
   0.731577E-02
   0.324414E-03
   0.334099E-03
   0.719459E-02
   0.446748E-03
   0.148883E-02
   0.149778E-02
   0.441508E-03
   0.439100E-03
   0.184287E-03
   0.503415E-04
   0.611944E-04
   0.155009E-03
   0.467849E-03
   0.315726E-04
   0.111387E-03
   0.109992E-03
   0.425352E-04
   0.181835E-03
   0.102062E-03
   0.300997E-03
   0.114278E-03
   0.116001E-03
   0.182043E-03
   0.190035E-03
   0.343397E-03
   0.780626E-17
   0.138651E-03
   0.118648E-03
   0.111542E-04
   0.221613E-03
   0.442205E-04
   0.176380E-04
   0.131434E-03
   0.137602E-03
   0.361282E-04
   0.442417E-04
   0.139714E-03
   0.223404E-03
   0.594332E-04
   0.109252E-03
   0.604547E-04
   0.178074E-03
   0.169467E-03
   0.487292E-04
   0.109775E-03
   0.177787E-02
   0.897246E-02
   0.716679E-04
   0.178746E-03
   0.169979E-03
   0.938658E-04
   0.915653E-02
   0.184076E-02
   0.148431E-02
   0.178238E-02
   0.181454E-02
   0.152400E-02
   0.256949E-03
   0.134185E-02
   0.137365E-02
   0.357183E-03
   0.504520E-03
   0.263252E-03
   0.949924E-04
   0.455110E-03
   0.418348E-04
   0.874734E-05
   0.000000E+00
   0.361282E-04
   0.226768E-03
   0.126762E-02
   0.140467E-02
   0.374418E-03
   0.140738E-02
   0.469347E-04
   0.108492E-03
   0.117677E-02
   0.980615E-04
   0.985846E-04
   0.740342E-04
   0.204051E-03
   0.203431E-03
   0.939070E-04
   0.649332E-03
   0.774982E-03
   0.552689E-03
   0.597411E-03
   0.137602E-03
   0.102062E-03
   0.105393E-03
   0.157424E-03
   0.107166E-02
   0.505187E-03
   0.476260E-03
   0.923911E-03
   0.915653E-02
   0.897246E-02
   0.719007E-02
   0.734200E-02
   0.190820E-16
   0.774982E-03
   0.754726E-02
   0.554471E-03
   0.696553E-05
   0.759895E-02
   0.665525E-03
   0.861248E-03
   0.612730E-03
   0.815700E-03
   0.792168E-02
   0.194018E-03
   0.891710E-04
   0.866443E-04
   0.192634E-03
   0.782571E-02
   0.181835E-03
   0.209863E-03
   0.227992E-03
   0.216506E-03
   0.771722E-02
   0.796861E-02
   0.777434E-03
   0.485502E-03
   0.266420E-03
   0.119861E-02
   0.105239E-03
   0.606657E-03
   0.649332E-03
   0.263252E-03
   0.746342E-02
   0.724096E-02
   0.153149E-03
   0.151766E-03
   0.818767E-03
   0.482986E-04
   0.468375E-16
   0.119861E-02
   0.297395E-03
   0.158574E-03
   0.151403E-03
   0.274621E-03
   0.660217E-02
   0.662823E-02
   0.504520E-03
   0.594332E-04
   0.157515E-03
   0.479260E-03
   0.636181E-02
   0.611667E-02
   0.266420E-03
   0.815700E-03
   0.730394E-03
   0.518284E-03
   0.171851E-03
   0.262219E-04
   0.347945E-04
   0.156266E-03
   0.223404E-03
   0.131434E-03
   0.193238E-03
   0.194297E-03
   0.616497E-02
   0.636181E-02
   0.108699E-02
   0.835857E-03
   0.612730E-03
   0.923911E-03
   0.668325E-02
   0.662823E-02
   0.243211E-05
   0.180168E-04
   0.153369E-03
   0.136472E-04
   0.176380E-04
   0.114278E-03
   0.138017E-02
   0.487478E-03
   0.476260E-03
   0.117677E-02
   0.724096E-02
   0.751911E-02
   0.300997E-03
   0.184287E-03
   0.181879E-03
   0.353265E-03
   0.136490E-02
   0.289155E-04
   0.108492E-03
   0.126762E-02
   0.800659E-02
   0.771722E-02
   0.439100E-03
   0.441508E-03
   0.226768E-03
   0.134185E-02
   0.138068E-02
   0.337487E-03
   0.782571E-02
   0.797767E-02
   0.149778E-02
   0.324414E-03
   0.256949E-03
   0.152400E-02
   0.764019E-02
   0.759895E-02
   0.181454E-02
   0.184076E-02
   0.731577E-02
   0.734200E-02
   0.915653E-02
   0.915653E-02
   0.993968E-02
   0.993968E-02
   0.877569E-02
   0.116399E-02
   0.119644E-02
   0.874324E-02
   0.982552E-03
   0.950105E-03
   0.219122E-03
   0.852412E-02
   0.856068E-02
   0.215007E-03
   0.560429E-03
   0.129141E-02
   0.127253E-02
   0.504985E-03
   0.412597E-03
   0.357153E-03
   0.650303E-03
   0.787382E-02
   0.782580E-02
   0.734885E-03
   0.529016E-03
   0.862833E-05
   0.623677E-04
   0.578740E-03
   0.320672E-03
   0.100553E-03
   0.108909E-03
   0.310612E-03
   0.615445E-03
   0.725837E-02
   0.719196E-02
   0.633836E-03
   0.172763E-03
   0.277583E-03
   0.197582E-03
   0.160878E-03
   0.184906E-03
   0.193261E-03
   0.189542E-04
   0.940752E-04
   0.356519E-04
   0.743625E-05
   0.688575E-02
   0.306206E-03
   0.194398E-03
   0.205560E-05
   0.884583E-05
   0.221061E-03
   0.443286E-03
   0.681508E-02
   0.870659E-03
   0.588251E-03
   0.782077E-03
   0.915520E-03
   0.226256E-03
   0.550328E-03
   0.627595E-03
   0.252273E-03
   0.753956E-04
   0.686053E-04
   0.791506E-04
   0.137025E-03
   0.141205E-03
   0.136010E-03
   0.359017E-03
   0.717410E-02
   0.741590E-02
   0.530144E-03
   0.132285E-02
   0.227012E-02
   0.251587E-02
   0.120365E-02
   0.142447E-02
   0.406778E-03
   0.370870E-03
   0.150231E-02
   0.123172E-03
   0.505723E-04
   0.525162E-04
   0.114146E-03
   0.921941E-04
   0.142666E-03
   0.244655E-03
   0.829724E-04
   0.670423E-03
   0.784453E-02
   0.811143E-02
   0.695536E-03
   0.390428E-02
   0.692876E-03
   0.144807E-03
   0.135782E-03
   0.907577E-03
   0.384812E-02
   0.185178E-04
   0.489740E-04
   0.591554E-04
   0.175335E-04
   0.167853E-02
   0.438811E-03
   0.421823E-03
   0.198806E-02
   0.634953E-03
   0.485131E-04
   0.618301E-04
   0.502658E-03
   0.133971E-03
   0.381372E-04
   0.530188E-04
   0.129645E-03
   0.416334E-16
   0.784453E-02
   0.810783E-02
   0.360746E-05
   0.312250E-16
   0.384812E-02
   0.437839E-04
   0.512709E-06
   0.386094E-02
   0.397382E-04
   0.180889E-05
   0.318043E-04
   0.165875E-02
   0.199558E-04
   0.780626E-17
   0.198806E-02
   0.581718E-04
   0.432902E-04
   0.628629E-03
   0.136324E-04
   0.607153E-17
   0.502658E-03
   0.127891E-03
   0.257248E-04
   0.398625E-04
   0.125724E-03
   0.231936E-05
   0.131219E-04
   0.780626E-17
   0.512709E-06
   0.743003E-02
   0.677801E-03
   0.670423E-03
   0.717410E-02
   0.245174E-02
   0.731392E-03
   0.907577E-03
   0.227012E-02
   0.429078E-04
   0.463356E-04
   0.613297E-04
   0.288827E-04
   0.421823E-03
   0.150231E-02
   0.139069E-02
   0.463334E-03
   0.129019E-03
   0.119943E-04
   0.346945E-17
   0.125724E-03
   0.240033E-03
   0.747376E-04
   0.618301E-04
   0.142666E-03
   0.192298E-04
   0.578272E-04
   0.437839E-04
   0.175335E-04
   0.478469E-04
   0.338217E-04
   0.691958E-02
   0.510450E-03
   0.693889E-17
   0.463356E-04
   0.359017E-03
   0.681508E-02
   0.629419E-04
   0.103821E-04
   0.132285E-02
   0.588251E-03
   0.756568E-03
   0.118473E-02
   0.630454E-03
   0.424488E-03
   0.370870E-03
   0.550328E-03
   0.139721E-03
   0.471252E-04
   0.398625E-04
   0.129645E-03
   0.761441E-04
   0.108311E-03
   0.921941E-04
   0.136010E-03
   0.488395E-04
   0.938960E-05
   0.000000E+00
   0.338217E-04
   0.561390E-04
   0.714019E-04
   0.591554E-04
   0.505723E-04
   0.429078E-04
   0.432902E-04
   0.639141E-04
   0.461529E-04
   0.719606E-02
   0.276485E-03
   0.443286E-03
   0.725837E-02
   0.131894E-03
   0.901160E-03
   0.870659E-03
   0.160878E-03
   0.677959E-06
   0.271384E-03
   0.226256E-03
   0.940752E-04
   0.530188E-04
   0.135782E-03
   0.157063E-03
   0.540598E-04
   0.346945E-17
   0.938960E-05
   0.467706E-04
   0.482217E-04
   0.192062E-03
   0.155467E-03
   0.478469E-04
   0.288827E-04
   0.141205E-03
   0.221061E-03
   0.581718E-04
   0.381372E-04
   0.675274E-04
   0.504465E-04
   0.843551E-04
   0.127250E-03
   0.123172E-03
   0.686053E-04
   0.780462E-02
   0.608556E-03
   0.615445E-03
   0.787382E-02
   0.104083E-16
   0.482217E-04
   0.453342E-03
   0.287108E-03
   0.488395E-04
   0.103821E-04
   0.197582E-03
   0.578740E-03
   0.144807E-03
   0.114146E-03
   0.149875E-03
   0.134438E-03
   0.288760E-03
   0.232977E-05
   0.189542E-04
   0.310612E-03
   0.508386E-04
   0.463785E-04
   0.613297E-04
   0.257248E-04
   0.884583E-05
   0.193261E-03
   0.174421E-03
   0.153116E-04
   0.981844E-04
   0.103781E-03
   0.133971E-03
   0.489740E-04
   0.261734E-04
   0.734933E-04
   0.753956E-04
   0.205560E-05
   0.467706E-04
   0.461529E-04
   0.629419E-04
   0.119943E-04
   0.607153E-17
   0.463785E-04
   0.853795E-02
   0.733334E-03
   0.650303E-03
   0.852412E-02
   0.192100E-03
   0.312683E-04
   0.525162E-04
   0.137025E-03
   0.116508E-02
   0.215962E-04
   0.709319E-04
   0.836878E-04
   0.623677E-04
   0.129141E-02
   0.127891E-03
   0.318043E-04
   0.406458E-03
   0.961015E-04
   0.108909E-03
   0.357153E-03
   0.835453E-04
   0.161865E-03
   0.184906E-03
   0.100553E-03
   0.171422E-03
   0.419692E-04
   0.185178E-04
   0.829724E-04
   0.639141E-04
   0.471252E-04
   0.508386E-04
   0.504465E-04
   0.129019E-03
   0.131219E-04
   0.194398E-03
   0.743625E-05
   0.572973E-05
   0.182308E-03
   0.780626E-17
   0.836878E-04
   0.139074E-03
   0.110111E-03
   0.180889E-05
   0.485131E-04
   0.326704E-03
   0.477045E-04
   0.791506E-04
   0.252273E-03
   0.878556E-02
   0.247604E-03
   0.219122E-03
   0.874324E-02
   0.560429E-03
   0.950105E-03
   0.888801E-03
   0.523882E-03
   0.558885E-03
   0.371455E-03
   0.675274E-04
   0.540598E-04
   0.412597E-03
   0.504985E-03
   0.709319E-04
   0.103781E-03
   0.139721E-03
   0.578272E-04
   0.522853E-03
   0.303727E-03
   0.381264E-04
   0.249783E-03
   0.244655E-03
   0.406778E-03
   0.320672E-03
   0.862833E-05
   0.867362E-18
   0.110111E-03
   0.231936E-05
   0.136324E-04
   0.356519E-04
   0.277583E-03
   0.303593E-03
   0.480803E-04
   0.478556E-03
   0.643209E-03
   0.634953E-03
   0.438811E-03
   0.824215E-03
   0.545592E-03
   0.157063E-03
   0.714019E-04
   0.627595E-03
   0.915520E-03
   0.981844E-04
   0.134438E-03
   0.119644E-02
   0.993968E-02
   0.139074E-03
   0.419692E-04
   0.192298E-04
   0.747376E-04
   0.982654E-02
   0.104099E-02
   0.982552E-03
   0.116399E-02
   0.111461E-02
   0.815181E-03
   0.307249E-03
   0.106682E-02
   0.127253E-02
   0.215007E-03
   0.882909E-03
   0.905648E-03
   0.142447E-02
   0.120365E-02
   0.628629E-03
   0.199558E-04
   0.173472E-16
   0.643209E-03
   0.721186E-03
   0.383757E-03
   0.529016E-03
   0.734885E-03
   0.172763E-03
   0.633836E-03
   0.549397E-03
   0.137953E-03
   0.149875E-03
   0.127250E-03
   0.171422E-03
   0.312683E-04
   0.561390E-04
   0.108311E-03
   0.391137E-03
   0.818229E-03
   0.167853E-02
   0.692876E-03
   0.478556E-03
   0.303727E-03
   0.240033E-03
   0.463334E-03
   0.782077E-03
   0.306206E-03
   0.470287E-04
   0.915140E-03
   0.982654E-02
   0.993968E-02
   0.877569E-02
   0.871194E-02
   0.867362E-17
   0.818229E-03
   0.856068E-02
   0.165875E-02
   0.397382E-04
   0.840469E-02
   0.251587E-02
   0.530144E-03
   0.706277E-03
   0.250433E-02
   0.782580E-02
   0.843551E-04
   0.155467E-03
   0.192100E-03
   0.734933E-04
   0.768350E-02
   0.522853E-03
   0.477045E-04
   0.761441E-04
   0.424488E-03
   0.713410E-02
   0.719196E-02
   0.390428E-02
   0.695536E-03
   0.659436E-03
   0.355490E-02
   0.139069E-02
   0.731392E-03
   0.391137E-03
   0.905648E-03
   0.688575E-02
   0.708707E-02
   0.261734E-04
   0.153116E-04
   0.386094E-02
   0.360746E-05
   0.260209E-16
   0.355490E-02
   0.192062E-03
   0.271384E-03
   0.326704E-03
   0.182308E-03
   0.741590E-02
   0.779335E-02
   0.882909E-03
   0.545592E-03
   0.630454E-03
   0.118473E-02
   0.845279E-02
   0.811143E-02
   0.659436E-03
   0.250433E-02
   0.245174E-02
   0.677801E-03
   0.174421E-03
   0.232977E-05
   0.572973E-05
   0.161865E-03
   0.824215E-03
   0.480803E-04
   0.677959E-06
   0.901160E-03
   0.810783E-02
   0.845279E-02
   0.756568E-03
   0.510450E-03
   0.706277E-03
   0.915140E-03
   0.743003E-02
   0.779335E-02
   0.835453E-04
   0.961015E-04
   0.288760E-03
   0.287108E-03
   0.303593E-03
   0.249783E-03
   0.131894E-03
   0.276485E-03
   0.470287E-04
   0.137953E-03
   0.708707E-02
   0.691958E-02
   0.381264E-04
   0.371455E-03
   0.406458E-03
   0.215962E-04
   0.453342E-03
   0.608556E-03
   0.549397E-03
   0.383757E-03
   0.719606E-02
   0.713410E-02
   0.558885E-03
   0.523882E-03
   0.721186E-03
   0.106682E-02
   0.116508E-02
   0.733334E-03
   0.768350E-02
   0.780462E-02
   0.888801E-03
   0.247604E-03
   0.307249E-03
   0.815181E-03
   0.853795E-02
   0.840469E-02
   0.111461E-02
   0.104099E-02
   0.878556E-02
   0.871194E-02
   0.982654E-02
   0.982654E-02
   0.911028E-02
   0.911028E-02
   0.866026E-02
   0.450014E-03
   0.482554E-03
   0.862772E-02
   0.756693E-04
   0.108210E-03
   0.142023E-03
   0.848570E-02
   0.852280E-02
   0.137464E-03
   0.242356E-03
   0.787738E-05
   0.216506E-07
   0.213111E-03
   0.312138E-03
   0.282894E-03
   0.599949E-03
   0.788575E-02
   0.795708E-02
   0.565720E-03
   0.347443E-03
   0.913185E-03
   0.938887E-03
   0.331060E-03
   0.152455E-03
   0.448591E-03
   0.448020E-03
   0.207972E-03
   0.219061E-03
   0.766669E-02
   0.783937E-02
   0.117710E-03
   0.103498E-02
   0.805248E-03
   0.867049E-03
   0.979048E-03
   0.355664E-03
   0.356235E-03
   0.372226E-03
   0.702795E-03
   0.586134E-03
   0.371568E-03
   0.857631E-02
   0.736937E-03
   0.218766E-03
   0.234670E-03
   0.212939E-03
   0.196948E-03
   0.747317E-03
   0.841401E-02
   0.634667E-03
   0.236103E-02
   0.224260E-02
   0.470683E-03
   0.719322E-03
   0.618141E-03
   0.395873E-03
   0.660944E-03
   0.403561E-04
   0.620867E-04
   0.482703E-04
   0.393908E-03
   0.386748E-03
   0.135625E-03
   0.858914E-03
   0.927292E-02
   0.930091E-02
   0.724603E-03
   0.507748E-04
   0.327072E-02
   0.288459E-02
   0.826122E-04
   0.267976E-03
   0.581237E-03
   0.706958E-03
   0.380423E-04
   0.185788E-03
   0.138874E-03
   0.152507E-03
   0.201045E-03
   0.416330E-03
   0.426253E-03