# vtk DataFile Version 2.0
This file was created by Fortran
ASCII
DATASET UNSTRUCTURED_GRID
POINTS  4896  DOUBLE
   0.116468E-01   0.101852E+01   0.711433E-01
  -0.178458E-01   0.988659E+00   0.712988E-01
   0.725504E-01   0.102104E+01   0.638616E-01
   0.375201E-01   0.992846E+00   0.547092E-01
   0.802750E-02   0.962982E+00   0.548647E-01
  -0.193121E-01   0.927665E+00   0.644231E-01
   0.644469E-01   0.969334E+00   0.442000E-01
   0.316677E-01   0.936136E+00   0.442000E-01
   0.432813E-02   0.900819E+00   0.537585E-01
  -0.215290E-01   0.863605E+00   0.607670E-01
   0.136447E+00   0.102418E+01   0.599199E-01
   0.994772E-01   0.997532E+00   0.533523E-01
   0.607933E-01   0.906915E+00   0.442000E-01
   0.312711E-01   0.869679E+00   0.442000E-01
   0.130538E+00   0.970088E+00   0.442000E-01
   0.935725E-01   0.940114E+00   0.442000E-01
   0.128726E+00   0.906749E+00   0.442000E-01
   0.937909E-01   0.871588E+00   0.442000E-01
   0.541401E-02   0.832464E+00   0.512086E-01
  -0.268712E-01   0.797904E+00   0.543854E-01
   0.202044E+00   0.103013E+01   0.535956E-01
   0.167508E+00   0.996737E+00   0.507676E-01
   0.199928E+00   0.968676E+00   0.442000E-01
   0.165691E+00   0.936723E+00   0.442000E-01
   0.642686E-01   0.834351E+00   0.442000E-01
   0.330338E-01   0.799996E+00   0.442000E-01
   0.199847E+00   0.904547E+00   0.442000E-01
   0.165463E+00   0.869821E+00   0.442000E-01
   0.130527E+00   0.834660E+00   0.442000E-01
   0.960214E-01   0.800141E+00   0.442000E-01
   0.748594E-03   0.765437E+00   0.473768E-01
  -0.397777E-01   0.732208E+00   0.493305E-01
   0.267905E+00   0.104342E+01   0.495337E-01
   0.234464E+00   0.100207E+01   0.470280E-01
   0.266833E+00   0.972100E+00   0.442000E-01
   0.234083E+00   0.936499E+00   0.442000E-01
   0.647865E-01   0.765787E+00   0.442000E-01
   0.305145E-01   0.733162E+00   0.442000E-01
   0.199565E+00   0.835256E+00   0.442000E-01
   0.164899E+00   0.800539E+00   0.442000E-01
   0.130393E+00   0.766020E+00   0.442000E-01
   0.963486E-01   0.732847E+00   0.442000E-01
   0.267054E+00   0.904395E+00   0.442000E-01
   0.233949E+00   0.869982E+00   0.442000E-01
   0.334164E+00   0.105738E+01   0.551148E-01
   0.300274E+00   0.101345E+01   0.467057E-01
   0.267064E+00   0.835960E+00   0.442000E-01
   0.233166E+00   0.801645E+00   0.442000E-01
   0.198500E+00   0.766928E+00   0.442000E-01
   0.164152E+00   0.732964E+00   0.442000E-01
  -0.100118E-01   0.699933E+00   0.461537E-01
  -0.547030E-01   0.666224E+00   0.531809E-01
   0.620766E-01   0.700223E+00   0.442000E-01
   0.224892E-01   0.667417E+00   0.442000E-01
   0.332905E+00   0.981611E+00   0.442000E-01
   0.299804E+00   0.939997E+00   0.442000E-01
   0.130108E+00   0.699791E+00   0.442000E-01
   0.961969E-01   0.667331E+00   0.442000E-01
   0.332700E+00   0.905246E+00   0.442000E-01
   0.300169E+00   0.870373E+00   0.442000E-01
   0.266409E+00   0.767752E+00   0.442000E-01
   0.232385E+00   0.733730E+00   0.442000E-01
   0.333611E+00   0.835791E+00   0.442000E-01
   0.300307E+00   0.802067E+00   0.442000E-01
   0.198037E+00   0.699766E+00   0.442000E-01
   0.164266E+00   0.666400E+00   0.442000E-01
  -0.222020E-01   0.633707E+00   0.512272E-01
  -0.635310E-01   0.599588E+00   0.660134E-01
   0.400833E+00   0.106443E+01   0.680266E-01
   0.366796E+00   0.102554E+01   0.526091E-01
   0.566096E-01   0.634526E+00   0.442000E-01
   0.106897E-01   0.600850E+00   0.442000E-01
   0.399642E+00   0.994788E+00   0.442000E-01
   0.365801E+00   0.946861E+00   0.442000E-01
   0.398904E+00   0.907470E+00   0.442000E-01
   0.366141E+00   0.870664E+00   0.442000E-01
   0.130355E+00   0.633940E+00   0.442000E-01
   0.954615E-01   0.601319E+00   0.442000E-01
   0.265946E+00   0.700197E+00   0.442000E-01
   0.232132E+00   0.666473E+00   0.442000E-01
   0.333661E+00   0.767974E+00   0.442000E-01
   0.299970E+00   0.734220E+00   0.442000E-01
   0.198361E+00   0.633107E+00   0.442000E-01
   0.165059E+00   0.600060E+00   0.442000E-01
   0.399987E+00   0.835080E+00   0.442000E-01
   0.366965E+00   0.801698E+00   0.442000E-01
  -0.306393E-01   0.566731E+00   0.589862E-01
  -0.654123E-01   0.533087E+00   0.771196E-01
   0.467091E+00   0.106526E+01   0.775969E-01
   0.433679E+00   0.103368E+01   0.596175E-01
   0.466626E+00   0.100476E+01   0.442000E-01
   0.432745E+00   0.955397E+00   0.442000E-01
   0.333379E+00   0.700510E+00   0.442000E-01
   0.299688E+00   0.666818E+00   0.442000E-01
   0.495416E-01   0.567644E+00   0.442000E-01
   0.136961E-02   0.533644E+00   0.442000E-01
   0.400436E+00   0.767783E+00   0.442000E-01
   0.367070E+00   0.734264E+00   0.442000E-01
   0.265874E+00   0.633094E+00   0.442000E-01
   0.232255E+00   0.599694E+00   0.442000E-01
   0.466213E+00   0.910201E+00   0.442000E-01
   0.432749E+00   0.871886E+00   0.442000E-01
   0.130165E+00   0.567439E+00   0.442000E-01
   0.942043E-01   0.534000E+00   0.442000E-01
   0.466666E+00   0.834558E+00   0.442000E-01
   0.433457E+00   0.801165E+00   0.442000E-01
   0.198953E+00   0.566647E+00   0.442000E-01
   0.165767E+00   0.533439E+00   0.442000E-01
   0.400334E+00   0.700607E+00   0.442000E-01
   0.366897E+00   0.667007E+00   0.442000E-01
   0.333206E+00   0.633315E+00   0.442000E-01
   0.299587E+00   0.599853E+00   0.442000E-01
  -0.334034E-01   0.500000E+00   0.623334E-01
  -0.654123E-01   0.466913E+00   0.771196E-01
   0.532926E+00   0.106529E+01   0.774315E-01
   0.500037E+00   0.103634E+01   0.621794E-01
   0.460323E-01   0.500000E+00   0.442000E-01
   0.136961E-02   0.466356E+00   0.442000E-01
   0.265968E+00   0.566453E+00   0.442000E-01
   0.232423E+00   0.533208E+00   0.442000E-01
   0.533466E+00   0.100478E+01   0.442000E-01
   0.500094E+00   0.959561E+00   0.442000E-01
   0.466928E+00   0.767564E+00   0.442000E-01
   0.433700E+00   0.734126E+00   0.442000E-01
   0.534006E+00   0.910265E+00   0.442000E-01
   0.500130E+00   0.872874E+00   0.442000E-01
   0.129806E+00   0.500000E+00   0.442000E-01
   0.942043E-01   0.466000E+00   0.442000E-01
   0.400198E+00   0.633464E+00   0.442000E-01
   0.366765E+00   0.600013E+00   0.442000E-01
   0.533585E+00   0.834562E+00   0.442000E-01
   0.500137E+00   0.800957E+00   0.442000E-01
   0.199237E+00   0.500000E+00   0.442000E-01
   0.165767E+00   0.466561E+00   0.442000E-01
   0.466914E+00   0.700612E+00   0.442000E-01
   0.433636E+00   0.667064E+00   0.442000E-01
   0.333145E+00   0.566551E+00   0.442000E-01
   0.299572E+00   0.533246E+00   0.442000E-01
   0.533345E+00   0.767561E+00   0.442000E-01
   0.500142E+00   0.734050E+00   0.442000E-01
   0.266027E+00   0.500000E+00   0.442000E-01
   0.232423E+00   0.466792E+00   0.442000E-01
   0.599131E+00   0.106444E+01   0.677853E-01
   0.566355E+00   0.103373E+01   0.594522E-01
  -0.306393E-01   0.433269E+00   0.589862E-01
  -0.635310E-01   0.400412E+00   0.660134E-01
   0.600349E+00   0.994847E+00   0.442000E-01
   0.567377E+00   0.955487E+00   0.442000E-01
   0.495416E-01   0.432356E+00   0.442000E-01
   0.106897E-01   0.399150E+00   0.442000E-01
   0.400119E+00   0.566648E+00   0.442000E-01
   0.366706E+00   0.533305E+00   0.442000E-01
   0.466863E+00   0.633530E+00   0.442000E-01
   0.433552E+00   0.600100E+00   0.442000E-01
   0.130165E+00   0.432561E+00   0.442000E-01
   0.954615E-01   0.398681E+00   0.442000E-01
   0.601216E+00   0.907551E+00   0.442000E-01
   0.567461E+00   0.871953E+00   0.442000E-01
   0.533363E+00   0.700620E+00   0.442000E-01
   0.500142E+00   0.667078E+00   0.442000E-01
   0.333133E+00   0.500000E+00   0.442000E-01
   0.299572E+00   0.466754E+00   0.442000E-01
   0.600220E+00   0.835049E+00   0.442000E-01
   0.566794E+00   0.801165E+00   0.442000E-01
   0.198953E+00   0.433353E+00   0.442000E-01
   0.165059E+00   0.399940E+00   0.442000E-01
   0.599801E+00   0.767769E+00   0.442000E-01
   0.566567E+00   0.734130E+00   0.442000E-01
   0.265968E+00   0.433547E+00   0.442000E-01
   0.232255E+00   0.400306E+00   0.442000E-01
   0.466826E+00   0.566700E+00   0.442000E-01
   0.433507E+00   0.533343E+00   0.442000E-01
   0.665693E+00   0.105735E+01   0.550521E-01
   0.633125E+00   0.102556E+01   0.525331E-01
   0.400094E+00   0.500000E+00   0.442000E-01
   0.366706E+00   0.466695E+00   0.442000E-01
  -0.222020E-01   0.366293E+00   0.512272E-01
  -0.547030E-01   0.333776E+00   0.531809E-01
   0.533403E+00   0.633542E+00   0.442000E-01
   0.500137E+00   0.600130E+00   0.442000E-01
   0.566096E-01   0.365474E+00   0.442000E-01
   0.224892E-01   0.332583E+00   0.442000E-01
   0.666958E+00   0.981606E+00   0.442000E-01
   0.634187E+00   0.946911E+00   0.442000E-01
   0.667310E+00   0.905159E+00   0.442000E-01
   0.633974E+00   0.870648E+00   0.442000E-01
   0.130355E+00   0.366060E+00   0.442000E-01
   0.961969E-01   0.332669E+00   0.442000E-01
   0.599896E+00   0.700633E+00   0.442000E-01
   0.566624E+00   0.667083E+00   0.442000E-01
   0.333145E+00   0.433449E+00   0.442000E-01
   0.299587E+00   0.400147E+00   0.442000E-01
   0.666508E+00   0.835671E+00   0.442000E-01
   0.633226E+00   0.801653E+00   0.442000E-01
   0.198361E+00   0.366893E+00   0.442000E-01
   0.164266E+00   0.333600E+00   0.442000E-01
   0.533424E+00   0.566708E+00   0.442000E-01
   0.500133E+00   0.533357E+00   0.442000E-01
   0.466814E+00   0.500000E+00   0.442000E-01
   0.433507E+00   0.466657E+00   0.442000E-01
   0.666478E+00   0.767944E+00   0.442000E-01
   0.633130E+00   0.734272E+00   0.442000E-01
   0.265874E+00   0.366906E+00   0.442000E-01
   0.232132E+00   0.333527E+00   0.442000E-01
   0.400119E+00   0.433352E+00   0.442000E-01
   0.366765E+00   0.399987E+00   0.442000E-01
   0.599999E+00   0.633507E+00   0.442000E-01
   0.566689E+00   0.600119E+00   0.442000E-01
   0.731845E+00   0.104338E+01   0.494046E-01
   0.699526E+00   0.101340E+01   0.467190E-01
[...]
POINT_DATA  4896
SCALARS  vx_strength  double
LOOKUP_TABLE default
   0.993968E-02
   0.993968E-02
   0.877569E-02
   0.116399E-02
   0.119644E-02
   0.874324E-02
   0.982552E-03
   0.950105E-03
   0.219122E-03
   0.852412E-02
   0.856068E-02
   0.215007E-03
   0.560429E-03
   0.129141E-02
   0.127253E-02
   0.504985E-03
   0.412597E-03
   0.357153E-03
   0.650303E-03
   0.787382E-02
   0.782580E-02
   0.734885E-03
   0.529016E-03
   0.862833E-05
   0.623677E-04
   0.578740E-03
   0.320672E-03
   0.100553E-03
   0.108909E-03
   0.310612E-03
   0.615445E-03
   0.725837E-02
   0.719196E-02
   0.633836E-03
   0.172763E-03
   0.277583E-03
   0.197582E-03
   0.160878E-03
   0.184906E-03
   0.193261E-03
   0.189542E-04
   0.940752E-04
   0.356519E-04
   0.743625E-05
   0.688575E-02
   0.306206E-03
   0.194398E-03
   0.205560E-05
   0.884583E-05
   0.221061E-03
   0.443286E-03
   0.681508E-02
   0.870659E-03
   0.588251E-03
   0.782077E-03
   0.915520E-03
   0.226256E-03
   0.550328E-03
   0.627595E-03
   0.252273E-03
   0.753956E-04
   0.686053E-04
   0.791506E-04
   0.137025E-03
   0.141205E-03
   0.136010E-03
   0.359017E-03
   0.717410E-02
   0.741590E-02
   0.530144E-03
   0.132285E-02
   0.227012E-02
   0.251587E-02
   0.120365E-02
   0.142447E-02
   0.406778E-03
   0.370870E-03
   0.150231E-02
   0.123172E-03
   0.505723E-04
   0.525162E-04
   0.114146E-03
   0.921941E-04
   0.142666E-03
   0.244655E-03
   0.829724E-04
   0.670423E-03
   0.784453E-02
   0.811143E-02
   0.695536E-03
   0.390428E-02
   0.692876E-03
   0.144807E-03
   0.135782E-03
   0.907577E-03
   0.384812E-02
   0.185178E-04
   0.489740E-04
   0.591554E-04
   0.175335E-04
   0.167853E-02
   0.438811E-03
   0.421823E-03
   0.198806E-02
   0.634953E-03
   0.485131E-04
   0.618301E-04
   0.502658E-03
   0.133971E-03
   0.381372E-04
   0.530188E-04
   0.129645E-03
   0.416334E-16
   0.784453E-02
   0.810783E-02
   0.360746E-05
   0.312250E-16
   0.384812E-02
   0.437839E-04
   0.512709E-06
   0.386094E-02
   0.397382E-04
   0.180889E-05
   0.318043E-04
   0.165875E-02
   0.199558E-04
   0.780626E-17
   0.198806E-02
   0.581718E-04
   0.432902E-04
   0.628629E-03
   0.136324E-04
   0.607153E-17
   0.502658E-03
   0.127891E-03
   0.257248E-04
   0.398625E-04
   0.125724E-03
   0.231936E-05
   0.131219E-04
   0.780626E-17
   0.512709E-06
   0.743003E-02
   0.677801E-03
   0.670423E-03
   0.717410E-02
   0.245174E-02
   0.731392E-03
   0.907577E-03
   0.227012E-02
   0.429078E-04
   0.463356E-04
   0.613297E-04
   0.288827E-04
   0.421823E-03
   0.150231E-02
   0.139069E-02
   0.463334E-03
   0.129019E-03
   0.119943E-04
   0.346945E-17
   0.125724E-03
   0.240033E-03
   0.747376E-04
   0.618301E-04
   0.142666E-03
   0.192298E-04
   0.578272E-04
   0.437839E-04
   0.175335E-04
   0.478469E-04
   0.338217E-04
   0.691958E-02
   0.510450E-03
   0.693889E-17
   0.463356E-04
   0.359017E-03
   0.681508E-02
   0.629419E-04
   0.103821E-04
   0.132285E-02
   0.588251E-03
   0.756568E-03
   0.118473E-02
   0.630454E-03
   0.424488E-03
   0.370870E-03
   0.550328E-03
   0.139721E-03
   0.471252E-04
   0.398625E-04
   0.129645E-03
   0.761441E-04
   0.108311E-03
   0.921941E-04
   0.136010E-03
   0.488395E-04
   0.938960E-05
   0.000000E+00
   0.338217E-04
   0.561390E-04
   0.714019E-04
   0.591554E-04
   0.505723E-04
   0.429078E-04
   0.432902E-04
   0.639141E-04
   0.461529E-04
   0.719606E-02
   0.276485E-03
   0.443286E-03
   0.725837E-02
   0.131894E-03
   0.901160E-03
   0.870659E-03
   0.160878E-03
   0.677959E-06
   0.271384E-03
   0.226256E-03
   0.940752E-04
   0.530188E-04
   0.135782E-03
   0.157063E-03
   0.540598E-04
   0.346945E-17
   0.938960E-05
   0.467706E-04
   0.482217E-04
   0.192062E-03
   0.155467E-03
   0.478469E-04
   0.288827E-04
   0.141205E-03
   0.221061E-03
   0.581718E-04
   0.381372E-04
   0.675274E-04
   0.504465E-04
   0.843551E-04
   0.127250E-03
   0.123172E-03
   0.686053E-04
   0.780462E-02
   0.608556E-03
   0.615445E-03
   0.787382E-02
   0.104083E-16
   0.482217E-04
   0.453342E-03
   0.287108E-03
   0.488395E-04
   0.103821E-04
   0.197582E-03
   0.578740E-03
   0.144807E-03
   0.114146E-03
   0.149875E-03
   0.134438E-03
   0.288760E-03
   0.232977E-05
   0.189542E-04
   0.310612E-03
   0.508386E-04
   0.463785E-04
   0.613297E-04
   0.257248E-04
   0.884583E-05
   0.193261E-03
   0.174421E-03
   0.153116E-04
   0.981844E-04
   0.103781E-03
   0.133971E-03
   0.489740E-04
   0.261734E-04
   0.734933E-04
   0.753956E-04
   0.205560E-05
   0.467706E-04
   0.461529E-04
   0.629419E-04
   0.119943E-04
   0.607153E-17
   0.463785E-04
   0.853795E-02
   0.733334E-03
   0.650303E-03
   0.852412E-02
   0.192100E-03
   0.312683E-04
   0.525162E-04
   0.137025E-03
   0.116508E-02
   0.215962E-04
   0.709319E-04
   0.836878E-04
   0.623677E-04
   0.129141E-02
   0.127891E-03
   0.318043E-04
   0.406458E-03
   0.961015E-04
   0.108909E-03
   0.357153E-03
   0.835453E-04
   0.161865E-03
   0.184906E-03
   0.100553E-03
   0.171422E-03
   0.419692E-04
   0.185178E-04
   0.829724E-04
   0.639141E-04
   0.471252E-04
   0.508386E-04
   0.504465E-04
   0.129019E-03
   0.131219E-04
   0.194398E-03
   0.743625E-05
   0.572973E-05
   0.182308E-03
   0.780626E-17
   0.836878E-04
   0.139074E-03
   0.110111E-03
   0.180889E-05
   0.485131E-04
   0.326704E-03
   0.477045E-04
   0.791506E-04
   0.252273E-03
   0.878556E-02
   0.247604E-03
   0.219122E-03
   0.874324E-02
   0.560429E-03
   0.950105E-03
   0.888801E-03
   0.523882E-03
   0.558885E-03
   0.371455E-03
   0.675274E-04
   0.540598E-04
   0.412597E-03
   0.504985E-03
   0.709319E-04
   0.103781E-03
   0.139721E-03
   0.578272E-04
   0.522853E-03
   0.303727E-03
   0.381264E-04
   0.249783E-03
   0.244655E-03
   0.406778E-03
   0.320672E-03
   0.862833E-05
   0.867362E-18
   0.110111E-03
   0.231936E-05
   0.136324E-04
   0.356519E-04
   0.277583E-03
   0.303593E-03
   0.480803E-04
   0.478556E-03
   0.643209E-03
   0.634953E-03
   0.438811E-03
   0.824215E-03
   0.545592E-03
   0.157063E-03
   0.714019E-04
   0.627595E-03
   0.915520E-03
   0.981844E-04
   0.134438E-03
   0.119644E-02
   0.993968E-02
   0.139074E-03
   0.419692E-04
   0.192298E-04
   0.747376E-04
   0.982654E-02
   0.104099E-02
   0.982552E-03
   0.116399E-02
   0.111461E-02
   0.815181E-03
   0.307249E-03
   0.106682E-02
   0.127253E-02
   0.215007E-03
   0.882909E-03
   0.905648E-03
   0.142447E-02
   0.120365E-02
   0.628629E-03
   0.199558E-04
   0.173472E-16
   0.643209E-03
   0.721186E-03
   0.383757E-03
   0.529016E-03
   0.734885E-03
   0.172763E-03
   0.633836E-03
   0.549397E-03
   0.137953E-03
   0.149875E-03
   0.127250E-03
   0.171422E-03
   0.312683E-04
   0.561390E-04
   0.108311E-03
   0.391137E-03
   0.818229E-03
   0.167853E-02
   0.692876E-03
   0.478556E-03
   0.303727E-03
   0.240033E-03
   0.463334E-03
   0.782077E-03
   0.306206E-03
   0.470287E-04
   0.915140E-03
   0.982654E-02
   0.993968E-02
   0.877569E-02
   0.871194E-02
   0.867362E-17
   0.818229E-03
   0.856068E-02
   0.165875E-02
   0.397382E-04
   0.840469E-02
   0.251587E-02
   0.530144E-03
   0.706277E-03
   0.250433E-02
   0.782580E-02
   0.843551E-04
   0.155467E-03
   0.192100E-03
   0.734933E-04
   0.768350E-02
   0.522853E-03
   0.477045E-04
   0.761441E-04
   0.424488E-03
   0.713410E-02
   0.719196E-02
   0.390428E-02
   0.695536E-03
   0.659436E-03
   0.355490E-02
   0.139069E-02
   0.731392E-03
   0.391137E-03
   0.905648E-03
   0.688575E-02
   0.708707E-02
   0.261734E-04
   0.153116E-04
   0.386094E-02
   0.360746E-05
   0.260209E-16
   0.355490E-02
   0.192062E-03
   0.271384E-03
   0.326704E-03
   0.182308E-03
   0.741590E-02
   0.779335E-02
   0.882909E-03
   0.545592E-03
   0.630454E-03
   0.118473E-02
   0.845279E-02
   0.811143E-02
   0.659436E-03
   0.250433E-02
   0.245174E-02
   0.677801E-03
   0.174421E-03
   0.232977E-05
   0.572973E-05
   0.161865E-03
   0.824215E-03
   0.480803E-04
   0.677959E-06
   0.901160E-03
   0.810783E-02
   0.845279E-02
   0.756568E-03
   0.510450E-03
   0.706277E-03
   0.915140E-03
   0.743003E-02
   0.779335E-02
   0.835453E-04
   0.961015E-04
   0.288760E-03
   0.287108E-03
   0.303593E-03
   0.249783E-03
   0.131894E-03
   0.276485E-03
   0.470287E-04
   0.137953E-03
   0.708707E-02
   0.691958E-02
   0.381264E-04
   0.371455E-03
   0.406458E-03
   0.215962E-04
   0.453342E-03
   0.608556E-03
   0.549397E-03
   0.383757E-03
   0.719606E-02
   0.713410E-02
   0.558885E-03
   0.523882E-03
   0.721186E-03
   0.106682E-02
   0.116508E-02
   0.733334E-03
   0.768350E-02
   0.780462E-02
   0.888801E-03
   0.247604E-03
   0.307249E-03
   0.815181E-03
   0.853795E-02
   0.840469E-02
   0.111461E-02
   0.104099E-02
   0.878556E-02
   0.871194E-02
   0.982654E-02
   0.982654E-02
   0.911028E-02
   0.911028E-02
   0.866026E-02
   0.450014E-03
   0.482554E-03
   0.862772E-02
   0.756693E-04
   0.108210E-03
   0.142023E-03
   0.848570E-02
   0.852280E-02
   0.137464E-03
   0.242356E-03
   0.787738E-05
   0.216506E-07
   0.213111E-03
   0.312138E-03
   0.282894E-03
   0.599949E-03
   0.788575E-02
   0.795708E-02
   0.565720E-03
   0.347443E-03
   0.913185E-03
   0.938887E-03
   0.331060E-03
   0.152455E-03
   0.448591E-03
   0.448020E-03
   0.207972E-03
   0.219061E-03
   0.766669E-02
   0.783937E-02
   0.117710E-03
   0.103498E-02
   0.805248E-03
   0.867049E-03
   0.979048E-03
   0.355664E-03
   0.356235E-03
   0.372226E-03
   0.702795E-03
   0.586134E-03
   0.371568E-03
   0.857631E-02
   0.736937E-03
   0.218766E-03
   0.234670E-03
   0.212939E-03
   0.196948E-03
   0.747317E-03
   0.841401E-02
   0.634667E-03
   0.236103E-02
   0.224260E-02
   0.470683E-03
   0.719322E-03
   0.618141E-03
   0.395873E-03
   0.660944E-03
   0.403561E-04
   0.620867E-04
   0.482703E-04
   0.393908E-03
   0.386748E-03
   0.135625E-03
   0.858914E-03
   0.927292E-02
   0.930091E-02
   0.724603E-03
   0.507748E-04
   0.327072E-02
   0.288459E-02
   0.826122E-04
   0.267976E-03
   0.581237E-03
   0.706958E-03
   0.380423E-04
   0.185788E-03
   0.138874E-03
   0.152507E-03
   0.201045E-03
   0.416330E-03
   0.426253E-03
   0.233062E-03
   0.396445E-03
   0.391783E-03
   0.966470E-02
   0.957707E-02
   0.276157E-03
   0.287755E-02
   0.283200E-03
   0.677663E-04
   0.830234E-04
   0.243948E-03
   0.341856E-02
   0.360151E-03
   0.188801E-03
   0.175616E-03
   0.379588E-03
   0.846293E-03
   0.295117E-03
   0.403499E-03
   0.685490E-03
   0.279018E-03
   0.249162E-03
   0.279994E-03
   0.549759E-03
   0.319748E-04
   0.890602E-04
   0.701109E-04
   0.224815E-04
   0.121431E-16
   0.966470E-02
   0.957261E-02
   0.446025E-05
   0.130104E-16
   0.341856E-02
   0.119202E-03
   0.540379E-03
   0.286396E-02
   0.912727E-05
   0.485458E-03
   0.123855E-03
   0.838808E-03
   0.166121E-04
   0.216840E-16
   0.685490E-03
   0.354276E-05
   0.154065E-04
   0.266380E-03
   0.397428E-05
   0.112757E-16
   0.549759E-03
   0.857380E-04
   0.700917E-04
   0.579547E-04
   0.837288E-04
   0.479078E-03
   0.240517E-05
   0.607153E-17
   0.540379E-03
   0.929467E-02
   0.277937E-03
   0.391783E-03
   0.927292E-02
   0.284266E-02
   0.256640E-03
   0.243948E-03
   0.327072E-02
   0.214134E-04
   0.211348E-04
   0.386806E-04
   0.349539E-04
   0.403499E-03
   0.380423E-04
   0.270188E-03
   0.311981E-03
   0.824440E-04
   0.569919E-05
   0.104083E-16
   0.837288E-04
   0.204676E-03
   0.250278E-03
   0.279994E-03
   0.426253E-03
   0.347227E-03
   0.118426E-03
   0.119202E-03
   0.379588E-03
   0.760826E-05
   0.211487E-04
   0.859065E-02
   0.704023E-03
   0.182146E-16
   0.211348E-04
   0.858914E-03
   0.841401E-02
   0.361155E-04
   0.826434E-05
   0.507748E-04
   0.236103E-02
   0.220260E-02
   0.639621E-04
   0.362589E-03
   0.568814E-03
   0.706958E-03
   0.618141E-03
   0.223743E-04
   0.583564E-04
   0.579547E-04
   0.224815E-04
   0.252467E-04
   0.389385E-03
   0.416330E-03
   0.135625E-03
   0.902424E-05
   0.968032E-05
   0.954098E-17
   0.211487E-04
   0.137500E-03
   0.179658E-03
   0.175616E-03
   0.138874E-03
   0.214134E-04
   0.154065E-04
   0.386409E-05
   0.183768E-04
   0.788484E-02
   0.705812E-03
   0.747317E-03
   0.766669E-02
   0.104550E-02
   0.451291E-03
   0.634667E-03
   0.979048E-03
   0.550711E-03
   0.639413E-03
   0.719322E-03
   0.702795E-03
   0.701109E-04
   0.830234E-04
   0.821567E-04
   0.751272E-04
   0.260209E-17
   0.968032E-05
   0.254437E-04
   0.195737E-05
   0.223007E-03
   0.391160E-03
   0.760826E-05
   0.349539E-04
   0.386748E-03
   0.196948E-03
   0.354276E-05
   0.890602E-04
   0.812886E-04
   0.229738E-05
   0.573707E-04
   0.196289E-03
   0.185788E-03
   0.620867E-04
   0.799552E-02
   0.110681E-03
   0.219061E-03
   0.788575E-02
   0.000000E+00
   0.195737E-05
   0.377008E-03
   0.779173E-03
   0.902424E-05
   0.826434E-05
   0.867049E-03
   0.331060E-03
   0.677663E-04
   0.201045E-03
   0.198245E-03
   0.802000E-04
   0.148654E-03
   0.377116E-03
   0.372226E-03
   0.207972E-03
   0.635328E-04
   0.403865E-04
   0.386806E-04
   0.700917E-04
   0.212939E-03
   0.356235E-03
   0.371258E-03
   0.228864E-03
   0.178927E-03
   0.174385E-04
   0.319748E-04
   0.188801E-03
   0.239731E-03
   0.465031E-04
   0.403561E-04
   0.234670E-03
   0.254437E-04
   0.183768E-04
   0.361155E-04
   0.569919E-05
   0.147451E-16
   0.403865E-04
   0.854744E-02
   0.551929E-03
   0.599949E-03
   0.848570E-02
   0.382776E-03
   0.138028E-03
   0.152507E-03
   0.393908E-03
   0.346092E-04
   0.894327E-03
   0.115480E-03
   0.693858E-04
   0.938887E-03
   0.787738E-05
   0.857380E-04
   0.123855E-03
   0.267614E-03
   0.478060E-03
   0.448020E-03
   0.282894E-03
   0.484128E-03
   0.365190E-03
   0.355664E-03
   0.448591E-03
   0.363538E-03
   0.322639E-03
   0.360151E-03
   0.396445E-03
   0.386409E-05
   0.583564E-04
   0.635328E-04
   0.229738E-05
   0.824440E-04
   0.240517E-05
   0.218766E-03
   0.371568E-03
   0.369905E-03
   0.235017E-03
   0.121431E-16
   0.693858E-04
   0.222735E-03
   0.429894E-03
   0.485458E-03
   0.249162E-03
   0.588068E-03
   0.297250E-04
   0.482703E-04
   0.660944E-03
   0.859100E-02
   0.435561E-04
   0.142023E-03
   0.862772E-02
   0.242356E-03
   0.108210E-03
   0.127126E-03
   0.205291E-03
   0.225622E-03
   0.247283E-03
   0.812886E-04
   0.751272E-04
   0.312138E-03
   0.213111E-03
   0.115480E-03
   0.174385E-04
   0.223743E-04
   0.118426E-03
   0.481579E-03
   0.883153E-04
   0.863069E-03
   0.131657E-03
   0.233062E-03
   0.581237E-03
   0.152455E-03
   0.913185E-03
   0.112757E-16
   0.429894E-03
   0.479078E-03
   0.397428E-05
   0.586134E-03
   0.805248E-03
   0.716619E-03
   0.478372E-03
   0.238357E-03
   0.103938E-03
   0.279018E-03
   0.295117E-03
   0.328512E-03
   0.218815E-03
   0.821567E-04
   0.179658E-03
   0.395873E-03
   0.470683E-03
   0.178927E-03
   0.802000E-04
   0.482554E-03
   0.911028E-02
   0.222735E-03
   0.322639E-03
   0.347227E-03
   0.250278E-03
   0.889785E-02
   0.306848E-03
   0.756693E-04
   0.450014E-03
   0.330237E-03
   0.150516E-03
   0.726129E-04
   0.249347E-05
   0.216506E-07
   0.137464E-03
   0.158049E-03
   0.420813E-03
   0.267976E-03
   0.826122E-04
   0.266380E-03
   0.166121E-04
   0.954098E-17
   0.103938E-03
   0.494024E-03
   0.371538E-03
   0.347443E-03
   0.565720E-03
   0.103498E-02
   0.117710E-03
   0.439626E-05
   0.109255E-02
   0.198245E-03
   0.196289E-03
   0.363538E-03
   0.138028E-03
   0.137500E-03
   0.389385E-03
   0.283539E-03
   0.942709E-03
   0.846293E-03
   0.283200E-03
   0.238357E-03
   0.883153E-04
   0.204676E-03
   0.311981E-03
   0.224260E-02
   0.736937E-03
   0.679851E-03
   0.210092E-02
   0.889785E-02
   0.911028E-02
   0.866026E-02
   0.856761E-02
   0.121431E-16
   0.942709E-03
   0.852280E-02
   0.838808E-03
   0.912727E-05
   0.849500E-02
   0.288459E-02
   0.724603E-03
   0.589206E-03
   0.253207E-02
   0.795708E-02
   0.573707E-04
   0.391160E-03
   0.382776E-03
   0.465031E-04
   0.800097E-02
   0.481579E-03
   0.297250E-04
   0.252467E-04
   0.568814E-03
   0.800537E-02
   0.783937E-02
   0.287755E-02
   0.276157E-03
   0.199661E-03
   0.244819E-02
   0.270188E-03
   0.256640E-03
   0.283539E-03
   0.420813E-03
   0.857631E-02
   0.868522E-02
   0.239731E-03
   0.228864E-03
   0.286396E-02
   0.446025E-05
   0.520417E-17
   0.244819E-02
   0.223007E-03
   0.639413E-03
   0.588068E-03
   0.235017E-03
   0.930091E-02
   0.927443E-02
   0.158049E-03
   0.218815E-03
   0.362589E-03
   0.639621E-04
   0.947409E-02
   0.957707E-02
   0.199661E-03
   0.253207E-02
   0.284266E-02
   0.277937E-03
   0.371258E-03
   0.377116E-03
   0.369905E-03
   0.365190E-03
   0.328512E-03
   0.478372E-03
   0.550711E-03
   0.451291E-03
   0.957261E-02
   0.947409E-02
   0.220260E-02
   0.704023E-03
   0.589206E-03
   0.210092E-02
   0.929467E-02
   0.927443E-02
   0.484128E-03
   0.478060E-03
   0.148654E-03
   0.779173E-03
   0.716619E-03
   0.131657E-03
   0.104550E-02
   0.705812E-03
   0.679851E-03
   0.109255E-02
   0.868522E-02
   0.859065E-02
   0.863069E-03
   0.247283E-03
   0.267614E-03
   0.894327E-03
   0.377008E-03
   0.110681E-03
   0.439626E-05
   0.371538E-03
   0.788484E-02
   0.800537E-02
   0.225622E-03
   0.205291E-03
   0.494024E-03
   0.249347E-05
   0.346092E-04
   0.551929E-03
   0.800097E-02
   0.799552E-02
   0.127126E-03
   0.435561E-04
   0.726129E-04
   0.150516E-03
   0.854744E-02
   0.849500E-02
   0.330237E-03
   0.306848E-03
   0.859100E-02
   0.856761E-02
   0.889785E-02
   0.889785E-02
   0.875007E-02
   0.875007E-02
   0.803189E-02
   0.718189E-03
   0.685014E-03
   0.806506E-02
   0.350081E-03
   0.383256E-03
   0.596486E-03
   0.866155E-02
   0.863766E-02
   0.605771E-03
   0.196751E-03
   0.782991E-03
   0.771947E-03
   0.183905E-03
   0.632592E-04
   0.504132E-04
   0.959111E-04
   0.856563E-02
   0.857948E-02
   0.581770E-04
   0.135509E-02
   0.641316E-03
   0.637641E-03
   0.132472E-02
   0.132679E-03
   0.571896E-03
   0.582335E-03
   0.105719E-03
   0.560075E-03
   0.912571E-02
   0.911144E-02
   0.531959E-03
   0.233906E-02
   0.452012E-03
   0.531992E-03
   0.241679E-02
   0.347305E-03
   0.336866E-03
   0.456652E-03
   0.181059E-03
   0.140795E-03
   0.443896E-03
   0.954816E-02
   0.436718E-03
   0.155608E-03
   0.252199E-03
   0.255246E-03
   0.135460E-03
   0.521466E-03
   0.964718E-02
   0.192178E-03
   0.274608E-02
   0.250216E-02
   0.273614E-03
   0.328388E-03
   0.339507E-03
   0.422173E-03
   0.289354E-03
   0.150025E-03
   0.146978E-03
   0.160276E-03
   0.294021E-03
   0.299099E-03
   0.106172E-03
   0.119228E-03
   0.976640E-02
   0.959401E-02
   0.458557E-04
   0.534861E-03
   0.233044E-02
   0.200771E-02
   0.540310E-03
   0.102335E-02
   0.608665E-04
   0.111061E-03
   0.985429E-03
   0.125853E-03
   0.262679E-04
   0.181069E-04
   0.125889E-03
   0.281701E-03
   0.276812E-03