# vtk DataFile Version 2.0
This file was created by Fortran
ASCII
DATASET UNSTRUCTURED_GRID
POINTS  544  DOUBLE
   0.554868E-01   0.957748E+00   0.102045E+00
   0.422361E-01   0.944255E+00   0.101902E+00
   0.108084E+00   0.941354E+00   0.956021E-01
   0.866417E-01   0.926343E+00   0.710739E-01
   0.733910E-01   0.912850E+00   0.709311E-01
   0.589103E-01   0.891511E+00   0.951071E-01
   0.118007E+00   0.902603E+00   0.503086E-01
   0.968330E-01   0.881365E+00   0.498493E-01
   0.823523E-01   0.860026E+00   0.740253E-01
   0.673537E-01   0.834236E+00   0.982149E-01
   0.165407E+00   0.933247E+00   0.989938E-01
   0.139449E+00   0.917614E+00   0.748368E-01
   0.124460E+00   0.853695E+00   0.518316E-01
   0.103299E+00   0.827972E+00   0.496278E-01
   0.171449E+00   0.896238E+00   0.507434E-01
   0.145634E+00   0.874933E+00   0.522909E-01
   0.175795E+00   0.849239E+00   0.521508E-01
   0.150078E+00   0.823573E+00   0.519668E-01
   0.883009E-01   0.802182E+00   0.738173E-01
   0.729570E-01   0.774628E+00   0.999171E-01
   0.225090E+00   0.927900E+00   0.100804E+00
   0.197407E+00   0.911871E+00   0.749004E-01
   0.229162E+00   0.892005E+00   0.498727E-01
   0.201610E+00   0.870544E+00   0.506032E-01
   0.128917E+00   0.797851E+00   0.497629E-01
   0.107644E+00   0.770382E+00   0.484461E-01
   0.232169E+00   0.846056E+00   0.512391E-01
   0.204761E+00   0.820327E+00   0.500791E-01
   0.179043E+00   0.794661E+00   0.498951E-01
   0.153289E+00   0.767311E+00   0.507673E-01
   0.922999E-01   0.742828E+00   0.745458E-01
   0.767279E-01   0.714160E+00   0.101422E+00
   0.285614E+00   0.924325E+00   0.102359E+00
   0.256845E+00   0.908034E+00   0.757764E-01
   0.288362E+00   0.889131E+00   0.497452E-01
   0.259720E+00   0.867516E+00   0.505085E-01
   0.132017E+00   0.739842E+00   0.494505E-01
   0.110616E+00   0.711271E+00   0.481293E-01
   0.234520E+00   0.792266E+00   0.487646E-01
   0.207154E+00   0.764938E+00   0.486593E-01
   0.181400E+00   0.737588E+00   0.495315E-01
   0.155562E+00   0.709154E+00   0.504806E-01
   0.290416E+00   0.843825E+00   0.511244E-01
   0.261928E+00   0.817994E+00   0.499246E-01
   0.346603E+00   0.921941E+00   0.103424E+00
   0.317131E+00   0.905423E+00   0.763277E-01
   0.292063E+00   0.790528E+00   0.485409E-01
   0.263657E+00   0.763169E+00   0.484204E-01
   0.236290E+00   0.735841E+00   0.483151E-01
   0.208907E+00   0.707473E+00   0.482603E-01
   0.950439E-01   0.682603E+00   0.750056E-01
   0.792669E-01   0.653213E+00   0.102464E+00
   0.134161E+00   0.680582E+00   0.491595E-01
   0.112615E+00   0.651325E+00   0.479049E-01
   0.348375E+00   0.887219E+00   0.496493E-01
   0.319057E+00   0.865441E+00   0.503610E-01
   0.183069E+00   0.679039E+00   0.492094E-01
   0.157116E+00   0.649935E+00   0.502863E-01
   0.349703E+00   0.842318E+00   0.510478E-01
   0.320551E+00   0.816359E+00   0.497407E-01
   0.293335E+00   0.734539E+00   0.480558E-01
   0.264958E+00   0.706188E+00   0.479852E-01
   0.350784E+00   0.789329E+00   0.483935E-01
   0.321742E+00   0.761899E+00   0.481763E-01
   0.237575E+00   0.677820E+00   0.479304E-01
   0.210133E+00   0.648815E+00   0.479904E-01
   0.968385E-01   0.621935E+00   0.753633E-01
   0.808414E-01   0.592014E+00   0.103141E+00
   0.407838E+00   0.920492E+00   0.104109E+00
   0.377848E+00   0.903738E+00   0.767457E-01
   0.135571E+00   0.620677E+00   0.490317E-01
   0.113855E+00   0.590942E+00   0.477953E-01
   0.408811E+00   0.886058E+00   0.496309E-01
   0.379021E+00   0.864096E+00   0.503361E-01
   0.409541E+00   0.841395E+00   0.510486E-01
   0.379936E+00   0.815287E+00   0.497007E-01
   0.184180E+00   0.619711E+00   0.490673E-01
   0.158088E+00   0.590152E+00   0.501994E-01
   0.294276E+00   0.676895E+00   0.476444E-01
   0.265885E+00   0.647945E+00   0.476915E-01
   0.351631E+00   0.733623E+00   0.478869E-01
   0.322654E+00   0.705247E+00   0.477150E-01
   0.238443E+00   0.618940E+00   0.477515E-01
   0.210909E+00   0.589511E+00   0.478595E-01
   0.410139E+00   0.788586E+00   0.483569E-01
   0.380673E+00   0.761054E+00   0.481040E-01
   0.978584E-01   0.561021E+00   0.755727E-01
   0.815975E-01   0.530684E+00   0.103471E+00
   0.469197E+00   0.919836E+00   0.104438E+00
   0.438801E+00   0.902811E+00   0.769945E-01
   0.469461E+00   0.885534E+00   0.496450E-01
   0.439331E+00   0.863357E+00   0.503434E-01
   0.352267E+00   0.676236E+00   0.474585E-01
   0.323313E+00   0.647299E+00   0.474035E-01
   0.136373E+00   0.560417E+00   0.489630E-01
   0.114450E+00   0.530337E+00   0.477450E-01
   0.410612E+00   0.733049E+00   0.478414E-01
   0.381244E+00   0.704612E+00   0.476304E-01
   0.294922E+00   0.618349E+00   0.474506E-01
   0.266479E+00   0.589008E+00   0.475475E-01
   0.469659E+00   0.840979E+00   0.510783E-01
   0.439744E+00   0.814694E+00   0.497048E-01
   0.184817E+00   0.559951E+00   0.489916E-01
   0.158556E+00   0.530080E+00   0.501610E-01
   0.469820E+00   0.788249E+00   0.483747E-01
   0.440078E+00   0.760582E+00   0.480942E-01
   0.238945E+00   0.559578E+00   0.476555E-01
   0.211285E+00   0.529871E+00   0.478001E-01
   0.410970E+00   0.675818E+00   0.474058E-01
   0.381660E+00   0.646859E+00   0.473103E-01
   0.352707E+00   0.617923E+00   0.472553E-01
   0.323740E+00   0.588631E+00   0.472495E-01
   0.981894E-01   0.500000E+00   0.756428E-01
   0.815975E-01   0.469316E+00   0.103471E+00
   0.530593E+00   0.919916E+00   0.104430E+00
   0.499857E+00   0.902559E+00   0.770885E-01
   0.136634E+00   0.500000E+00   0.489429E-01
   0.114450E+00   0.469663E+00   0.477450E-01
   0.295298E+00   0.559290E+00   0.473464E-01
   0.266769E+00   0.529707E+00   0.474822E-01
   0.530175E+00   0.885601E+00   0.496887E-01
   0.499790E+00   0.863157E+00   0.503799E-01
   0.469949E+00   0.732787E+00   0.478595E-01
   0.440338E+00   0.704255E+00   0.476168E-01
   0.529859E+00   0.841033E+00   0.511333E-01
   0.499736E+00   0.814534E+00   0.497482E-01
   0.185024E+00   0.500000E+00   0.489695E-01
   0.158556E+00   0.469920E+00   0.501610E-01
   0.411219E+00   0.617651E+00   0.471988E-01
   0.381931E+00   0.588373E+00   0.471517E-01
   0.529599E+00   0.788294E+00   0.484418E-01
   0.499691E+00   0.760455E+00   0.481399E-01
   0.239109E+00   0.500000E+00   0.476269E-01
   0.211285E+00   0.470129E+00   0.478001E-01
   0.470046E+00   0.675626E+00   0.474237E-01
   0.440529E+00   0.646610E+00   0.472942E-01
   0.352965E+00   0.559081E+00   0.471459E-01
   0.323950E+00   0.529583E+00   0.471795E-01
   0.529392E+00   0.732822E+00   0.479351E-01
   0.499657E+00   0.704158E+00   0.476663E-01
   0.295421E+00   0.500000E+00   0.473153E-01
   0.266769E+00   0.470293E+00   0.474822E-01
   0.591950E+00   0.920733E+00   0.104087E+00
   0.560911E+00   0.902958E+00   0.770301E-01
   0.978584E-01   0.438979E+00   0.755727E-01
   0.808414E-01   0.407986E+00   0.103141E+00
   0.590820E+00   0.886259E+00   0.497655E-01
   0.560245E+00   0.863477E+00   0.504421E-01
   0.136373E+00   0.439583E+00   0.489630E-01
   0.113855E+00   0.409058E+00   0.477953E-01
   0.411366E+00   0.558947E+00   0.470874E-01
   0.382065E+00   0.529498E+00   0.470796E-01
   0.470114E+00   0.617526E+00   0.472172E-01
   0.440654E+00   0.588226E+00   0.471345E-01
   0.184817E+00   0.440049E+00   0.489916E-01
   0.158088E+00   0.409848E+00   0.501994E-01
   0.589969E+00   0.841558E+00   0.512184E-01
   0.559723E+00   0.814792E+00   0.498269E-01
   0.529235E+00   0.675652E+00   0.475058E-01
   0.499631E+00   0.646542E+00   0.473467E-01
   0.353050E+00   0.500000E+00   0.471131E-01
   0.323950E+00   0.470417E+00   0.471795E-01
   0.589272E+00   0.788719E+00   0.485635E-01
   0.559300E+00   0.760661E+00   0.482369E-01
   0.238945E+00   0.440422E+00   0.476555E-01
   0.210909E+00   0.410489E+00   0.478595E-01
   0.588720E+00   0.733153E+00   0.480742E-01
   0.558971E+00   0.704315E+00   0.477745E-01
   0.295298E+00   0.440710E+00   0.473464E-01
   0.266479E+00   0.410992E+00   0.475475E-01
   0.470154E+00   0.558885E+00   0.471062E-01
   0.440715E+00   0.529449E+00   0.470618E-01
   0.653179E+00   0.922350E+00   0.103393E+00
   0.621859E+00   0.904034E+00   0.768221E-01
   0.411414E+00   0.500000E+00   0.470540E-01
   0.382065E+00   0.470502E+00   0.470796E-01
   0.968385E-01   0.378065E+00   0.753633E-01
   0.792669E-01   0.346787E+00   0.102464E+00
   0.529125E+00   0.617543E+00   0.473038E-01
   0.499614E+00   0.588186E+00   0.471889E-01
   0.135571E+00   0.379323E+00   0.490317E-01
   0.112615E+00   0.348675E+00   0.479049E-01
   0.651244E+00   0.887559E+00   0.498872E-01
   0.620544E+00   0.864340E+00   0.505418E-01
   0.649790E+00   0.842591E+00   0.513484E-01
   0.619518E+00   0.815485E+00   0.499550E-01
   0.184180E+00   0.380289E+00   0.490673E-01
   0.157116E+00   0.350065E+00   0.502863E-01
   0.588303E+00   0.675894E+00   0.476583E-01
   0.558729E+00   0.646652E+00   0.474629E-01
   0.352965E+00   0.440919E+00   0.471459E-01
   0.323740E+00   0.411369E+00   0.472495E-01
   0.648609E+00   0.789550E+00   0.487582E-01
   0.618692E+00   0.761211E+00   0.484008E-01
   0.238443E+00   0.381060E+00   0.477515E-01
   0.210133E+00   0.351185E+00   0.479904E-01
   0.529060E+00   0.558894E+00   0.471954E-01
   0.499606E+00   0.529436E+00   0.471173E-01
   0.470167E+00   0.500000E+00   0.470730E-01
   0.440715E+00   0.470551E+00   0.470618E-01
   0.647684E+00   0.733795E+00   0.482968E-01
   0.618053E+00   0.704732E+00   0.479579E-01
   0.294922E+00   0.381651E+00   0.474506E-01
   0.265885E+00   0.352055E+00   0.476915E-01
   0.411366E+00   0.441053E+00   0.470874E-01
   0.381931E+00   0.411627E+00   0.471517E-01
   0.588012E+00   0.617701E+00   0.474650E-01
   0.558571E+00   0.588251E+00   0.473103E-01
   0.714161E+00   0.924911E+00   0.102331E+00
   0.682564E+00   0.905875E+00   0.764580E-01
[...]
POINT_DATA  544
SCALARS  vx_strength  double
LOOKUP_TABLE default
   0.245275E-01
   0.245275E-01
   0.248385E-01
   0.310971E-03
   0.635732E-03
   0.251632E-01
   0.190896E-02
   0.158420E-02
   0.319579E-02
   0.283590E-01
   0.278791E-01
   0.304058E-02
   0.376218E-02
   0.215059E-02
   0.248412E-02
   0.361574E-02
   0.452277E-02
   0.437633E-02
   0.159001E-02
   0.299490E-01
   0.293604E-01
   0.148134E-02
   0.292113E-02
   0.191835E-02
   0.202489E-02
   0.258547E-02
   0.499458E-02
   0.239017E-02
   0.250320E-02
   0.485465E-02
   0.123104E-02
   0.311801E-01
   0.305108E-01
   0.115044E-02
   0.320401E-02
   0.143332E-02
   0.151425E-02
   0.286867E-02
   0.283516E-02
   0.272213E-02
   0.186795E-02
   0.520835E-02
   0.534089E-02
   0.177963E-02
   0.312655E-01
   0.754697E-03
   0.308149E-02
   0.202596E-02
   0.211656E-02
   0.297073E-02
   0.817140E-03
   0.319972E-01
   0.100932E-02
   0.306085E-02
   0.339366E-02
   0.944348E-03
   0.124912E-02
   0.544815E-02
   0.557255E-02
   0.117601E-02
   0.230668E-02
   0.221608E-02
   0.325043E-02
   0.134495E-02
   0.142211E-02
   0.314373E-02
   0.516492E-03
   0.325137E-01
   0.317334E-01
   0.467866E-03
   0.634562E-03
   0.317892E-02
   0.350723E-02
   0.581435E-03
   0.571475E-02
   0.723634E-03
   0.785313E-03
   0.559890E-02
   0.155662E-02
   0.235059E-02
   0.243924E-02
   0.147750E-02
   0.895060E-03
   0.325347E-02
   0.335492E-02
   0.828122E-03
   0.248552E-03
   0.327623E-01
   0.319445E-01
   0.211150E-03
   0.355738E-02
   0.261300E-03
   0.165181E-02
   0.157269E-02
   0.305131E-03
   0.323550E-02
   0.252218E-02
   0.911069E-03
   0.981417E-03
   0.243694E-02
   0.577831E-02
   0.324865E-03
   0.377714E-03
   0.567148E-02
   0.340179E-02
   0.371739E-03
   0.430890E-03
   0.330665E-02
   0.171193E-02
   0.971190E-03
   0.104312E-02
   0.163439E-02
   0.138778E-16
   0.327623E-01
   0.319170E-01
   0.275851E-04
   0.138778E-16
   0.323550E-02
   0.472993E-03
   0.247905E-02
   0.354889E-02
   0.360785E-04
   0.255962E-02
   0.409172E-03
   0.576870E-02
   0.456957E-04
   0.138778E-16
   0.567148E-02
   0.108235E-02
   0.101042E-02
   0.339445E-02
   0.530342E-04
   0.693889E-17
   0.330665E-02
   0.173920E-02
   0.436439E-03
   0.503245E-03
   0.166465E-02
   0.255376E-02
   0.588935E-04
   0.208167E-16
   0.247905E-02
   0.316500E-01
   0.266991E-03
   0.248552E-03
   0.325137E-01
   0.348147E-02
   0.334415E-03
   0.305131E-03
   0.317892E-02
   0.522557E-03
   0.102974E-02
   0.110021E-02
   0.454298E-03
   0.377714E-03
   0.559890E-02
   0.568567E-02
   0.417440E-03
   0.173489E-02
   0.631968E-04
   0.000000E+00
   0.166465E-02
   0.333280E-02
   0.479094E-03
   0.430890E-03
   0.325347E-02
   0.250458E-02
   0.528271E-03
   0.472993E-03
   0.243694E-02
   0.531367E-03
   0.463108E-03
   0.311243E-01
   0.525635E-03
   0.277556E-16
   0.102974E-02
   0.516492E-03
   0.319972E-01
   0.109738E-02
   0.660280E-04
   0.634562E-03
   0.306085E-02
   0.334970E-02
   0.657405E-03
   0.552337E-02
   0.819711E-03
   0.785313E-03
   0.544815E-02
   0.169904E-02
   0.564126E-03
   0.503245E-03
   0.163439E-02
   0.321326E-02
   0.939249E-03
   0.895060E-03
   0.314373E-02
   0.529966E-03
   0.674297E-04
   0.693889E-17
   0.463108E-03
   0.240987E-02
   0.103396E-02
   0.981417E-03
   0.235059E-02
   0.522557E-03
   0.101042E-02
   0.107389E-02
   0.587617E-03
   0.303075E-01
   0.816842E-03
   0.817140E-03
   0.311801E-01
   0.314019E-02
   0.102635E-02
   0.100932E-02
   0.286867E-02
   0.527043E-02
   0.127929E-02
   0.124912E-02
   0.520835E-02
   0.104312E-02
   0.157269E-02
   0.163043E-02
   0.110258E-02
   0.138778E-16
   0.674297E-04
   0.518372E-03
   0.599211E-03
   0.302891E-02
   0.146364E-02
   0.531367E-03
   0.454298E-03
   0.142211E-02
   0.297073E-02
   0.108235E-02
   0.971190E-03
   0.102914E-02
   0.114732E-02
   0.226562E-02
   0.160789E-02
   0.155662E-02
   0.221608E-02
   0.290905E-01
   0.121695E-02
   0.123104E-02
   0.299490E-01
   0.555112E-16
   0.599211E-03
   0.283453E-02
   0.152261E-02
   0.529966E-03
   0.660280E-04
   0.151425E-02
   0.258547E-02
   0.165181E-02
   0.147750E-02
   0.152700E-02
   0.171132E-02
   0.490174E-02
   0.189130E-02
   0.186795E-02
   0.485465E-02
   0.496351E-03
   0.116935E-02
   0.110021E-02
   0.436439E-03
   0.211656E-02
   0.272213E-02
   0.276724E-02
   0.215296E-02
   0.962183E-03
   0.177827E-02
   0.171193E-02
   0.911069E-03
   0.206443E-02
   0.235415E-02
   0.230668E-02
   0.202596E-02
   0.518372E-03
   0.587617E-03
   0.109738E-02
   0.631968E-04
   0.000000E+00
   0.116935E-02
   0.275188E-01
   0.157173E-02
   0.159001E-02
   0.283590E-01
   0.138500E-02
   0.249616E-02
   0.243924E-02
   0.134495E-02
   0.237024E-02
   0.203601E-02
   0.463543E-03
   0.181108E-02
   0.202489E-02
   0.215059E-02
   0.173920E-02
   0.409172E-03
   0.440467E-02
   0.253309E-02
   0.250320E-02
   0.437633E-02
   0.241990E-02
   0.288043E-02
   0.283516E-02
   0.239017E-02
   0.871161E-03
   0.258718E-02
   0.252218E-02
   0.828122E-03
   0.107389E-02
   0.564126E-03
   0.496351E-03
   0.114732E-02
   0.173489E-02
   0.588935E-04
   0.308149E-02
   0.177963E-02
   0.180547E-02
   0.313938E-02
   0.624500E-16
   0.181108E-02
   0.419204E-03
   0.263152E-02
   0.255962E-02
   0.371739E-03
   0.120535E-02
   0.331903E-02
   0.325043E-02
   0.117601E-02
   0.244084E-01
   0.311043E-02
   0.319579E-02
   0.251632E-01
   0.376218E-02
   0.158420E-02
   0.176051E-02
   0.372016E-02
   0.362639E-02
   0.449843E-02
   0.102914E-02
   0.110258E-02
   0.452277E-02
   0.361574E-02
   0.463543E-03
   0.177827E-02
   0.169904E-02
   0.528271E-03
   0.757399E-03
   0.343279E-02
   0.193290E-02
   0.498543E-02
   0.335492E-02
   0.723634E-03
   0.499458E-02
   0.191835E-02
   0.277556E-16
   0.263152E-02
   0.255376E-02
   0.530342E-04
   0.534089E-02
   0.143332E-02
   0.144701E-02
   0.534390E-02
   0.364136E-03
   0.348786E-02
   0.340179E-02
   0.324865E-03
   0.962952E-03
   0.558630E-02
   0.163043E-02
   0.103396E-02
   0.557255E-02
   0.944348E-03
   0.962183E-03
   0.171132E-02
   0.635732E-03
   0.245275E-01
   0.419204E-03
   0.258718E-02
   0.250458E-02
   0.479094E-03
   0.236706E-01
   0.737823E-03
   0.190896E-02
   0.310971E-03
   0.432273E-03
   0.206606E-02
   0.301406E-02
   0.267840E-02
   0.248412E-02
   0.304058E-02
   0.605234E-03
   0.573847E-02
   0.571475E-02
   0.581435E-03
   0.339445E-02
   0.456957E-04
   0.138778E-16
   0.348786E-02
   0.147139E-02
   0.313990E-02
   0.292113E-02
   0.148134E-02
   0.320401E-02
   0.115044E-02
   0.114636E-02
   0.344055E-02
   0.152700E-02
   0.160789E-02
   0.871161E-03
   0.249616E-02
   0.240987E-02
   0.939249E-03
   0.290930E-03
   0.581167E-02
   0.577831E-02
   0.261300E-03
   0.364136E-03
   0.343279E-02
   0.333280E-02
   0.417440E-03
   0.339366E-02
   0.754697E-03
   0.759114E-03
   0.364439E-02
   0.236706E-01
   0.245275E-01
   0.248385E-01
   0.241028E-01
   0.138778E-16
   0.581167E-02
   0.278791E-01
   0.576870E-02
   0.360785E-04
   0.271169E-01
   0.350723E-02
   0.467866E-03
   0.480030E-03
   0.376960E-02
   0.293604E-01
   0.226562E-02
   0.146364E-02
   0.138500E-02
   0.235415E-02
   0.285883E-01
   0.757399E-03
   0.331903E-02
   0.321326E-02
   0.819711E-03
   0.297346E-01
   0.305108E-01
   0.355738E-02
   0.211150E-03
   0.230928E-03
   0.382960E-02
   0.568567E-02
   0.334415E-03
   0.290930E-03
   0.573847E-02
   0.312655E-01
   0.304938E-01
   0.206443E-02
   0.215296E-02
   0.354889E-02
   0.275851E-04
   0.208167E-16
   0.382960E-02
   0.302891E-02
   0.127929E-02
   0.120535E-02
   0.313938E-02
   0.317334E-01
   0.309738E-01
   0.605234E-03
   0.558630E-02
   0.552337E-02
   0.657405E-03
   0.312047E-01
   0.319445E-01
   0.230928E-03
   0.376960E-02
   0.348147E-02
   0.266991E-03
   0.276724E-02
   0.189130E-02
   0.180547E-02
   0.288043E-02
   0.962952E-03
   0.534390E-02
   0.527043E-02
   0.102635E-02
   0.319170E-01
   0.312047E-01
   0.334970E-02
   0.525635E-03
   0.480030E-03
   0.364439E-02
   0.316500E-01
   0.309738E-01
   0.241990E-02
   0.253309E-02
   0.490174E-02
   0.152261E-02
   0.144701E-02
   0.498543E-02
   0.314019E-02
   0.816842E-03
   0.759114E-03
   0.344055E-02
   0.304938E-01
   0.311243E-01
   0.193290E-02
   0.449843E-02
   0.440467E-02
   0.203601E-02
   0.283453E-02
   0.121695E-02
   0.114636E-02
   0.313990E-02
   0.303075E-01
   0.297346E-01
   0.362639E-02
   0.372016E-02
   0.147139E-02
   0.267840E-02
   0.237024E-02
   0.157173E-02
   0.285883E-01
   0.290905E-01
   0.176051E-02
   0.311043E-02
   0.301406E-02
   0.206606E-02
   0.275188E-01
   0.271169E-01
   0.432273E-03
   0.737823E-03
   0.244084E-01
   0.241028E-01
   0.236706E-01
   0.236706E-01

SCALARS  vx_core_radius  double
LOOKUP_TABLE default
   0.440115E-01
   0.440157E-01
   0.441009E-01
   0.438605E-01
   0.438509E-01
   0.441008E-01
   0.440229E-01
   0.440235E-01
   0.438159E-01
   0.441538E-01
   0.441551E-01
   0.438299E-01
   0.439849E-01
   0.441181E-01
   0.441202E-01
   0.439874E-01
   0.440971E-01
   0.440953E-01
   0.437914E-01
   0.441700E-01
   0.441709E-01
   0.438081E-01
   0.441481E-01
   0.439685E-01
   0.439646E-01
   0.441466E-01
   0.441320E-01
   0.440812E-01
   0.440825E-01
   0.441305E-01
   0.446077E-01
   0.441794E-01
   0.441801E-01
   0.445890E-01
   0.441640E-01
   0.439572E-01
   0.439523E-01
   0.441629E-01
   0.441205E-01
   0.441192E-01
   0.440732E-01
   0.441510E-01
   0.441522E-01
   0.440724E-01
   0.441848E-01
   0.445966E-01
   0.441431E-01
   0.441115E-01
   0.441125E-01
   0.441420E-01
   0.446165E-01
   0.441842E-01
   0.439444E-01
   0.441712E-01
   0.441721E-01
   0.439500E-01
   0.440673E-01
   0.441617E-01
   0.441626E-01
   0.440668E-01
   0.441364E-01
   0.441355E-01
   0.441551E-01
   0.441064E-01
   0.441072E-01
   0.441542E-01
   0.446222E-01
   0.441869E-01
   0.441874E-01
   0.446015E-01
   0.439394E-01
   0.441758E-01
   0.441765E-01
   0.439455E-01
   0.441684E-01
   0.440634E-01
   0.440637E-01
   0.441676E-01
   0.441317E-01
   0.441486E-01
   0.441493E-01
   0.441310E-01
   0.441038E-01
   0.441611E-01
   0.441617E-01
   0.441032E-01
   0.446254E-01
   0.441881E-01
   0.441885E-01
   0.446043E-01
   0.441784E-01
   0.439431E-01
   0.441450E-01
   0.441445E-01
   0.439367E-01
   0.441778E-01
   0.441565E-01
   0.441280E-01
   0.441285E-01
   0.441560E-01
   0.441709E-01
   0.440615E-01
   0.440616E-01
   0.441703E-01
   0.441647E-01
   0.441015E-01
   0.441019E-01
   0.441641E-01
   0.441526E-01
   0.441417E-01
   0.441421E-01
   0.441521E-01
   0.442000E-01
   0.441881E-01
   0.441885E-01
   0.446050E-01
   0.442000E-01
   0.441778E-01
   0.441268E-01
   0.441593E-01
   0.441784E-01
   0.439424E-01
   0.441597E-01
   0.441264E-01
   0.441708E-01
   0.440611E-01
   0.442000E-01
   0.441703E-01
   0.441499E-01
   0.441496E-01
   0.441646E-01
   0.441010E-01
   0.442000E-01
   0.441641E-01
   0.441560E-01
   0.441402E-01
   0.441405E-01
   0.441556E-01
   0.441597E-01
   0.441260E-01
   0.442000E-01
   0.441593E-01
   0.441873E-01
   0.446039E-01
   0.446254E-01
   0.441869E-01
   0.441764E-01
   0.439434E-01
   0.439367E-01
   0.441758E-01
   0.441483E-01
   0.441531E-01
   0.441534E-01
   0.441481E-01
   0.440616E-01
   0.441676E-01
   0.441682E-01
   0.440618E-01
   0.441559E-01
   0.441398E-01
   0.442000E-01
   0.441556E-01
   0.441615E-01
   0.441018E-01
   0.441019E-01
   0.441611E-01
   0.441563E-01
   0.441267E-01
   0.441268E-01
   0.441560E-01
   0.441518E-01
   0.441517E-01
   0.441847E-01
   0.446009E-01
   0.442000E-01
   0.441531E-01
   0.446222E-01
   0.441842E-01
   0.441533E-01
   0.441477E-01
   0.439394E-01
   0.441712E-01
   0.441719E-01
   0.439462E-01
   0.441623E-01
   0.440640E-01
   0.440637E-01
   0.441617E-01
   0.441524E-01
   0.441404E-01
   0.441405E-01
   0.441521E-01
   0.441547E-01
   0.441038E-01
   0.441038E-01
   0.441542E-01
   0.441518E-01
   0.441513E-01
   0.442000E-01
   0.441517E-01
   0.441490E-01
   0.441286E-01
   0.441285E-01
   0.441486E-01
   0.441483E-01
   0.441496E-01
   0.441497E-01
   0.441483E-01
   0.441799E-01
   0.445956E-01
   0.446165E-01
   0.441794E-01
   0.441637E-01
   0.439511E-01
   0.439444E-01
   0.441629E-01
   0.441517E-01
   0.440677E-01
   0.440673E-01
   0.441510E-01
   0.441421E-01
   0.441445E-01
   0.441448E-01
   0.441422E-01
   0.442000E-01
   0.441513E-01
   0.441481E-01
   0.441519E-01
   0.441426E-01
   0.441073E-01
   0.441518E-01
   0.441481E-01
   0.441072E-01
   0.441420E-01
   0.441499E-01
   0.441417E-01
   0.441419E-01
   0.441501E-01
   0.441360E-01
   0.441318E-01
   0.441317E-01
   0.441355E-01
   0.441708E-01
   0.445876E-01
   0.446077E-01
   0.441700E-01
   0.442000E-01
   0.441519E-01
   0.441476E-01
   0.439588E-01
   0.441518E-01
   0.441477E-01
   0.439523E-01
   0.441466E-01
   0.441450E-01
   0.441310E-01
   0.441314E-01
   0.441452E-01
   0.441315E-01
   0.440737E-01
   0.440732E-01
   0.441305E-01
   0.441402E-01
   0.441536E-01
   0.441534E-01
   0.441402E-01
   0.441125E-01
   0.441192E-01
   0.441201E-01
   0.441128E-01
   0.441283E-01
   0.441529E-01
   0.441526E-01
   0.441280E-01
   0.441124E-01
   0.441366E-01
   0.441364E-01
   0.441115E-01
   0.441481E-01
   0.441483E-01
   0.441533E-01
   0.441398E-01
   0.442000E-01
   0.441536E-01
   0.441550E-01
   0.438107E-01
   0.437914E-01
   0.441538E-01
   0.441072E-01
   0.441496E-01
   0.441493E-01
   0.441064E-01
   0.441197E-01
   0.439709E-01
   0.441266E-01
   0.441563E-01
   0.439646E-01
   0.441181E-01
   0.441560E-01
   0.441264E-01
   0.440969E-01
   0.440830E-01
   0.440825E-01
   0.440953E-01
   0.440827E-01
   0.441208E-01
   0.441205E-01
   0.440812E-01
   0.441039E-01
   0.441569E-01
   0.441565E-01
   0.441032E-01
   0.441497E-01
   0.441404E-01
   0.441402E-01
   0.441501E-01
   0.441559E-01
   0.441260E-01
   0.441431E-01
   0.440724E-01
   0.440739E-01
   0.441434E-01
   0.442000E-01
   0.441563E-01
   0.441021E-01
   0.441602E-01
   0.441597E-01
   0.441015E-01
   0.440683E-01
   0.441555E-01
   0.441551E-01
   0.440668E-01
   0.441037E-01
   0.438336E-01
   0.438159E-01
   0.441008E-01
   0.439849E-01
   0.440235E-01
   0.440279E-01
   0.439908E-01
   0.439922E-01
   0.440978E-01
   0.441419E-01
   0.441422E-01
   0.440971E-01
   0.439874E-01
   0.441266E-01
   0.441529E-01
   0.441524E-01
   0.441267E-01
   0.440648E-01
   0.441622E-01
   0.439735E-01
   0.441324E-01
   0.441617E-01
   0.440634E-01
   0.441320E-01
   0.439685E-01
   0.442000E-01
   0.441602E-01
   0.441597E-01
   0.441010E-01
   0.441522E-01
   0.439572E-01
   0.439623E-01
   0.441526E-01
   0.440629E-01
   0.441652E-01
   0.441647E-01
   0.440615E-01
   0.439552E-01
   0.441631E-01
   0.441448E-01
   0.441286E-01
   0.441626E-01
   0.439500E-01
   0.441283E-01
   0.441452E-01
   0.438509E-01
   0.440157E-01
   0.441021E-01
   0.441569E-01
   0.441563E-01
   0.441018E-01
   0.440239E-01
   0.438666E-01
   0.440229E-01
   0.438605E-01
   0.438752E-01
   0.440281E-01
   0.438458E-01
   0.441209E-01
   0.441202E-01
   0.438299E-01
   0.439508E-01
   0.441689E-01
   0.441684E-01
   0.439455E-01
   0.441646E-01
   0.440611E-01
   0.442000E-01
   0.441652E-01
   0.438250E-01
   0.441487E-01
   0.441481E-01
   0.438081E-01
   0.441640E-01
   0.445890E-01
   0.445716E-01
   0.441645E-01
   0.441314E-01
   0.441318E-01
   0.441039E-01
   0.441496E-01
   0.441490E-01
   0.441038E-01
   0.439483E-01
   0.441714E-01
   0.441709E-01
   0.439431E-01
   0.440629E-01
   0.441622E-01
   0.441615E-01
   0.440618E-01
   0.441721E-01
   0.445966E-01
   0.445787E-01
   0.441726E-01
   0.440201E-01
   0.440115E-01
   0.441009E-01
   0.441043E-01
   0.442000E-01
   0.441714E-01
   0.441551E-01
   0.441708E-01
   0.439424E-01
   0.441558E-01
   0.441765E-01
   0.446015E-01
   0.445834E-01
   0.441770E-01
   0.441709E-01
   0.441360E-01
   0.441073E-01
   0.441072E-01
   0.441366E-01
   0.441714E-01
   0.440648E-01
   0.441555E-01
   0.441547E-01
   0.440640E-01
   0.441805E-01
   0.441801E-01
   0.441784E-01
   0.446043E-01
   0.445860E-01
   0.441789E-01
   0.441682E-01
   0.439434E-01
   0.439483E-01
   0.441689E-01
   0.441848E-01
   0.441851E-01
   0.441124E-01
   0.441128E-01
   0.441784E-01
   0.446050E-01
   0.442000E-01
   0.441789E-01
   0.441426E-01
   0.440677E-01
   0.440683E-01
   0.441434E-01
   0.441874E-01
   0.441877E-01
   0.439508E-01
   0.441631E-01
   0.441623E-01
   0.439462E-01
   0.441888E-01
   0.441885E-01
   0.445860E-01
   0.441770E-01
   0.441764E-01
   0.446039E-01
   0.441201E-01
   0.440737E-01
   0.440739E-01
   0.441208E-01
   0.439552E-01
   0.441526E-01
   0.441517E-01
   0.439511E-01
   0.441885E-01
   0.441888E-01
   0.441719E-01
   0.446009E-01
   0.445834E-01
   0.441726E-01
   0.441873E-01
   0.441877E-01
   0.440827E-01
   0.440830E-01
   0.441315E-01
   0.439588E-01
   0.439623E-01
   0.441324E-01
   0.441637E-01
   0.445956E-01
   0.445787E-01
   0.441645E-01
   0.441851E-01
   0.441847E-01
   0.439735E-01
   0.440978E-01
   0.440969E-01
   0.439709E-01
   0.441476E-01
   0.445876E-01
   0.445716E-01
   0.441487E-01
   0.441799E-01
   0.441805E-01
   0.439922E-01
   0.439908E-01
   0.438250E-01
   0.441209E-01
   0.441197E-01
   0.438107E-01
   0.441714E-01
   0.441708E-01
   0.440279E-01
   0.438336E-01
   0.438458E-01
   0.440281E-01
   0.441550E-01
   0.441558E-01
   0.438752E-01
   0.438666E-01
   0.441037E-01
   0.441043E-01
   0.440201E-01
   0.440239E-01
