# vtk DataFile Version 2.0
This file was created by Fortran
ASCII
DATASET UNSTRUCTURED_GRID
POINTS  3264  DOUBLE
   0.693540E-02   0.103031E+01   0.641628E-01
  -0.301808E-01   0.993322E+00   0.640036E-01
   0.746598E-01   0.103850E+01   0.611982E-01
   0.366063E-01   0.100045E+01   0.517618E-01
  -0.509967E-03   0.963463E+00   0.516027E-01
  -0.389370E-01   0.925459E+00   0.605704E-01
   0.691187E-01   0.970086E+00   0.442000E-01
   0.299185E-01   0.930919E+00   0.442000E-01
  -0.850853E-02   0.892915E+00   0.531678E-01
  -0.434021E-01   0.857209E+00   0.642452E-01
   0.142940E+00   0.104255E+01   0.648137E-01
   0.107172E+00   0.100814E+01   0.536364E-01
   0.634152E-01   0.897499E+00   0.442000E-01
   0.240722E-01   0.860655E+00   0.442000E-01
   0.139545E+00   0.975977E+00   0.442000E-01
   0.102615E+00   0.936666E+00   0.442000E-01
   0.133919E+00   0.902956E+00   0.442000E-01
   0.973630E-01   0.866325E+00   0.442000E-01
  -0.108214E-01   0.824949E+00   0.552775E-01
  -0.417900E-01   0.790620E+00   0.700575E-01
   0.209642E+00   0.104062E+01   0.696947E-01
   0.175313E+00   0.101039E+01   0.553773E-01
   0.207291E+00   0.984268E+00   0.440686E-01
   0.170849E+00   0.942267E+00   0.442000E-01
   0.580200E-01   0.829480E+00   0.442000E-01
   0.155847E-01   0.793085E+00   0.441498E-01
   0.202350E+00   0.910003E+00   0.442000E-01
   0.166291E+00   0.870688E+00   0.442000E-01
   0.129735E+00   0.834057E+00   0.442000E-01
   0.907479E-01   0.798012E+00   0.442000E-01
  -0.153839E-01   0.758755E+00   0.589299E-01
  -0.386131E-01   0.725603E+00   0.734172E-01
   0.274671E+00   0.103720E+01   0.719908E-01
   0.241620E+00   0.101449E+01   0.583860E-01
   0.273605E+00   0.993205E+00   0.460773E-01
   0.238792E+00   0.952004E+00   0.440686E-01
   0.483126E-01   0.761616E+00   0.441498E-01
   0.575835E-02   0.726756E+00   0.453704E-01
   0.199532E+00   0.836374E+00   0.442000E-01
   0.164109E+00   0.800799E+00   0.442000E-01
   0.125122E+00   0.764754E+00   0.442000E-01
   0.800980E-01   0.729565E+00   0.442000E-01
   0.270770E+00   0.920974E+00   0.442000E-01
   0.235591E+00   0.875688E+00   0.442000E-01
   0.338944E+00   0.103358E+01   0.696238E-01
   0.306656E+00   0.101591E+01   0.596821E-01
   0.268660E+00   0.839410E+00   0.442000E-01
   0.234210E+00   0.801677E+00   0.442000E-01
   0.198786E+00   0.766103E+00   0.442000E-01
   0.161418E+00   0.731610E+00   0.442000E-01
  -0.174708E-01   0.693604E+00   0.598577E-01
  -0.348643E-01   0.661206E+00   0.717190E-01
   0.375438E-01   0.694705E+00   0.454206E-01
   0.100939E-02   0.661471E+00   0.497517E-01
   0.338718E+00   0.996869E+00   0.509858E-01
   0.305582E+00   0.962175E+00   0.462087E-01
   0.116394E+00   0.696421E+00   0.442000E-01
   0.685172E-01   0.662488E+00   0.442000E-01
   0.337718E+00   0.932305E+00   0.442000E-01
   0.303838E+00   0.884696E+00   0.442000E-01
   0.268170E+00   0.766789E+00   0.442000E-01
   0.233600E+00   0.732082E+00   0.442000E-01
   0.336353E+00   0.844838E+00   0.442000E-01
   0.302620E+00   0.804522E+00   0.442000E-01
   0.196232E+00   0.697589E+00   0.442000E-01
   0.156332E+00   0.663840E+00   0.442000E-01
  -0.163841E-01   0.629073E+00   0.616131E-01
  -0.323638E-01   0.596831E+00   0.694464E-01
   0.403212E+00   0.103134E+01   0.671721E-01
   0.371006E+00   0.101453E+01   0.609275E-01
   0.319828E-01   0.629255E+00   0.485312E-01
   0.121515E-02   0.596824E+00   0.534753E-01
   0.403223E+00   0.996147E+00   0.541227E-01
   0.370853E+00   0.966999E+00   0.489771E-01
   0.403124E+00   0.938437E+00   0.442000E-01
   0.370232E+00   0.892448E+00   0.442000E-01
   0.108456E+00   0.629907E+00   0.442000E-01
   0.617801E-01   0.596956E+00   0.442000E-01
   0.267565E+00   0.698056E+00   0.442000E-01
   0.232262E+00   0.664489E+00   0.442000E-01
   0.335658E+00   0.768277E+00   0.442000E-01
   0.302135E+00   0.732764E+00   0.442000E-01
   0.192362E+00   0.630740E+00   0.442000E-01
   0.151323E+00   0.597619E+00   0.442000E-01
   0.402487E+00   0.849944E+00   0.442000E-01
   0.369390E+00   0.808594E+00   0.442000E-01
  -0.147645E-01   0.564581E+00   0.613086E-01
  -0.313472E-01   0.532300E+00   0.682544E-01
   0.467699E+00   0.103053E+01   0.659881E-01
   0.435429E+00   0.101296E+01   0.603673E-01
   0.467706E+00   0.994907E+00   0.544200E-01
   0.435494E+00   0.967585E+00   0.493456E-01
   0.335362E+00   0.698447E+00   0.442000E-01
   0.301776E+00   0.664783E+00   0.442000E-01
   0.310124E-01   0.564525E+00   0.491442E-01
   0.240428E-02   0.532281E+00   0.540685E-01
   0.401890E+00   0.770121E+00   0.442000E-01
   0.368886E+00   0.733961E+00   0.442000E-01
   0.266473E+00   0.631216E+00   0.442000E-01
   0.230540E+00   0.598192E+00   0.442000E-01
   0.467762E+00   0.940087E+00   0.442000E-01
   0.435379E+00   0.895933E+00   0.442000E-01
   0.104647E+00   0.564668E+00   0.442000E-01
   0.597390E-01   0.532244E+00   0.442000E-01
   0.467601E+00   0.852532E+00   0.442000E-01
   0.434986E+00   0.811471E+00   0.442000E-01
   0.189500E+00   0.565071E+00   0.442000E-01
   0.148658E+00   0.532424E+00   0.442000E-01
   0.401664E+00   0.698901E+00   0.442000E-01
   0.368710E+00   0.665052E+00   0.442000E-01
   0.335124E+00   0.631387E+00   0.442000E-01
   0.301366E+00   0.598405E+00   0.442000E-01
  -0.141785E-01   0.500000E+00   0.610143E-01
  -0.313472E-01   0.467700E+00   0.682544E-01
   0.532248E+00   0.103060E+01   0.660230E-01
   0.499977E+00   0.101247E+01   0.600407E-01
   0.311308E-01   0.500000E+00   0.491243E-01
   0.240428E-02   0.467719E+00   0.540685E-01
   0.265433E+00   0.565381E+00   0.442000E-01
   0.229393E+00   0.532647E+00   0.442000E-01
   0.532215E+00   0.994989E+00   0.544295E-01
   0.499975E+00   0.967409E+00   0.492744E-01
   0.467381E+00   0.771308E+00   0.442000E-01
   0.434668E+00   0.735061E+00   0.442000E-01
   0.532195E+00   0.940075E+00   0.442000E-01
   0.499984E+00   0.896686E+00   0.442000E-01
   0.103750E+00   0.500000E+00   0.442000E-01
   0.597390E-01   0.467756E+00   0.442000E-01
   0.401612E+00   0.631476E+00   0.442000E-01
   0.368633E+00   0.598463E+00   0.442000E-01
   0.532378E+00   0.852474E+00   0.442000E-01
   0.499995E+00   0.812369E+00   0.442000E-01
   0.188550E+00   0.500000E+00   0.442000E-01
   0.148658E+00   0.467576E+00   0.442000E-01
   0.467297E+00   0.699226E+00   0.442000E-01
   0.434566E+00   0.665326E+00   0.442000E-01
   0.334875E+00   0.565480E+00   0.442000E-01
   0.301065E+00   0.532734E+00   0.442000E-01
   0.532628E+00   0.771279E+00   0.442000E-01
   0.500009E+00   0.735472E+00   0.442000E-01
   0.265024E+00   0.500000E+00   0.442000E-01
   0.229393E+00   0.467353E+00   0.442000E-01
   0.596669E+00   0.103152E+01   0.672571E-01
   0.564487E+00   0.101311E+01   0.604117E-01
  -0.147645E-01   0.435419E+00   0.613086E-01
  -0.323638E-01   0.403169E+00   0.694464E-01
   0.596647E+00   0.996347E+00   0.541146E-01
   0.564436E+00   0.967655E+00   0.493551E-01
   0.310124E-01   0.435475E+00   0.491442E-01
   0.121515E-02   0.403176E+00   0.534753E-01
   0.401574E+00   0.565496E+00   0.442000E-01
   0.368579E+00   0.532746E+00   0.442000E-01
   0.467290E+00   0.631538E+00   0.442000E-01
   0.434553E+00   0.598509E+00   0.442000E-01
   0.104647E+00   0.435332E+00   0.442000E-01
   0.617801E-01   0.403044E+00   0.442000E-01
   0.596821E+00   0.938385E+00   0.442000E-01
   0.564589E+00   0.895863E+00   0.442000E-01
   0.532744E+00   0.699214E+00   0.442000E-01
   0.500022E+00   0.665438E+00   0.442000E-01
   0.334769E+00   0.500000E+00   0.442000E-01
   0.301065E+00   0.467266E+00   0.442000E-01
   0.597497E+00   0.849797E+00   0.442000E-01
   0.565010E+00   0.811384E+00   0.442000E-01
   0.189500E+00   0.434929E+00   0.442000E-01
   0.151323E+00   0.402381E+00   0.442000E-01
   0.598139E+00   0.770044E+00   0.442000E-01
   0.565363E+00   0.735021E+00   0.442000E-01
   0.265433E+00   0.434619E+00   0.442000E-01
   0.230540E+00   0.401808E+00   0.442000E-01
   0.467293E+00   0.565500E+00   0.442000E-01
   0.434552E+00   0.532750E+00   0.442000E-01
   0.660919E+00   0.103378E+01   0.697346E-01
   0.628829E+00   0.101476E+01   0.609600E-01
   0.401557E+00   0.500000E+00   0.442000E-01
   0.368579E+00   0.467254E+00   0.442000E-01
  -0.163841E-01   0.370927E+00   0.616131E-01
  -0.348643E-01   0.338794E+00   0.717190E-01
   0.532776E+00   0.631532E+00   0.442000E-01
   0.500031E+00   0.598528E+00   0.442000E-01
   0.319828E-01   0.370745E+00   0.485312E-01
   0.100939E-02   0.338529E+00   0.497517E-01
   0.661112E+00   0.997110E+00   0.509358E-01
   0.629032E+00   0.967077E+00   0.489595E-01
   0.662192E+00   0.932231E+00   0.442000E-01
   0.629729E+00   0.892319E+00   0.442000E-01
   0.108456E+00   0.370093E+00   0.442000E-01
   0.685172E-01   0.337512E+00   0.442000E-01
   0.598417E+00   0.698864E+00   0.442000E-01
   0.565498E+00   0.665309E+00   0.442000E-01
   0.334875E+00   0.434520E+00   0.442000E-01
   0.301366E+00   0.401595E+00   0.442000E-01
   0.663631E+00   0.844658E+00   0.442000E-01
   0.630626E+00   0.808457E+00   0.442000E-01
   0.192362E+00   0.369260E+00   0.442000E-01
   0.156332E+00   0.336160E+00   0.442000E-01
   0.532791E+00   0.565497E+00   0.442000E-01
   0.500036E+00   0.532750E+00   0.442000E-01
   0.467294E+00   0.500000E+00   0.442000E-01
   0.434552E+00   0.467250E+00   0.442000E-01
   0.664427E+00   0.768156E+00   0.442000E-01
   0.631193E+00   0.733887E+00   0.442000E-01
   0.266473E+00   0.368784E+00   0.442000E-01
   0.232262E+00   0.335511E+00   0.442000E-01
   0.401574E+00   0.434504E+00   0.442000E-01
   0.368633E+00   0.401537E+00   0.442000E-01
   0.598517E+00   0.631455E+00   0.442000E-01
   0.565537E+00   0.598501E+00   0.442000E-01
   0.725280E+00   0.103741E+01   0.721986E-01
   0.693201E+00   0.101613E+01   0.597105E-01
[...]
POINT_DATA  3264
SCALARS  vx_strength  double
LOOKUP_TABLE default
   0.102363E-01
   0.102363E-01
   0.856942E-02
   0.166683E-02
   0.170792E-02
   0.852833E-02
   0.227313E-02
   0.223205E-02
   0.538161E-03
   0.906649E-02
   0.910226E-02
   0.532841E-03
   0.479336E-03
   0.229087E-02
   0.232790E-02
   0.478073E-03
   0.919378E-05
   0.793041E-05
   0.875414E-03
   0.994191E-02
   0.999156E-02
   0.889304E-03
   0.306734E-02
   0.149870E-03
   0.577297E-04
   0.310856E-02
   0.441305E-03
   0.300628E-03
   0.306211E-03
   0.356010E-03
   0.711694E-03
   0.106536E-01
   0.105791E-01
   0.587527E-03
   0.296454E-02
   0.690327E-03
   0.639359E-03
   0.318089E-02
   0.178020E-03
   0.172438E-03
   0.242547E-03
   0.123792E-02
   0.134004E-02
   0.208404E-03
   0.106111E-01
   0.319815E-04
   0.112843E-03
   0.143227E-03
   0.158975E-03
   0.888654E-04
   0.142910E-03
   0.107965E-01
   0.749718E-03
   0.257408E-02
   0.225756E-02
   0.738954E-03
   0.524270E-04
   0.193521E-02
   0.197668E-02
   0.102311E-03
   0.127010E-03
   0.111263E-03
   0.280718E-03
   0.655641E-04
   0.767734E-04
   0.218066E-03
   0.119945E-03
   0.106766E-01
   0.104722E-01
   0.138873E-03
   0.371991E-03
   0.208215E-02
   0.179195E-02
   0.326740E-03
   0.197804E-02
   0.325382E-03
   0.299019E-03
   0.200818E-02
   0.684905E-04
   0.102980E-03
   0.129281E-03
   0.678347E-04
   0.598128E-06
   0.516487E-03
   0.591207E-03
   0.148924E-04
   0.989893E-04
   0.105776E-01
   0.103669E-01
   0.105317E-03
   0.159604E-02
   0.905975E-04
   0.235636E-04
   0.242194E-04
   0.117357E-03
   0.186580E-02
   0.204101E-03
   0.599276E-04
   0.594978E-04
   0.163076E-03
   0.186034E-02
   0.208293E-03
   0.210221E-03
   0.191532E-02
   0.759353E-03
   0.401478E-04
   0.347108E-04
   0.691997E-03
   0.687696E-04
   0.147216E-04
   0.125751E-04
   0.711422E-04
   0.867362E-17
   0.105776E-01
   0.103665E-01
   0.397154E-06
   0.346945E-17
   0.186580E-02
   0.294147E-04
   0.227201E-03
   0.160086E-02
   0.522451E-05
   0.274870E-03
   0.306214E-04
   0.186381E-02
   0.869416E-05
   0.433681E-17
   0.191532E-02
   0.197465E-04
   0.175999E-04
   0.757099E-03
   0.644055E-05
   0.130104E-16
   0.691997E-03
   0.861015E-04
   0.132895E-04
   0.971376E-05
   0.908431E-04
   0.273077E-03
   0.464702E-05
   0.433681E-17
   0.227201E-03
   0.104647E-01
   0.982388E-04
   0.989893E-04
   0.106766E-01
   0.180175E-02
   0.102646E-03
   0.117357E-03
   0.208215E-02
   0.702313E-05
   0.343368E-04
   0.355324E-04
   0.249636E-05
   0.210221E-03
   0.200818E-02
   0.198570E-02
   0.224532E-03
   0.860673E-04
   0.468119E-05
   0.130104E-16
   0.908431E-04
   0.585899E-03
   0.533316E-04
   0.347108E-04
   0.516487E-03
   0.199627E-03
   0.201181E-04
   0.294147E-04
   0.163076E-03
   0.175473E-04
   0.130205E-04
   0.106137E-01
   0.149013E-03
   0.147451E-16
   0.343368E-04
   0.119945E-03
   0.107965E-01
   0.357543E-04
   0.445933E-05
   0.371991E-03
   0.257408E-02
   0.228863E-02
   0.337864E-03
   0.198532E-02
   0.337482E-03
   0.299019E-03
   0.193521E-02
   0.696029E-04
   0.365371E-05
   0.971376E-05
   0.711422E-04
   0.276779E-03
   0.283634E-04
   0.598128E-06
   0.218066E-03
   0.176831E-04
   0.432351E-05
   0.520417E-17
   0.130205E-04
   0.123158E-03
   0.481057E-04
   0.594978E-04
   0.102980E-03
   0.702313E-05
   0.175999E-04
   0.207802E-04
   0.113204E-04
   0.105874E-01
   0.263805E-04
   0.142910E-03
   0.106536E-01
   0.301373E-02
   0.751481E-03
   0.749718E-03
   0.318089E-02
   0.135679E-02
   0.122952E-03
   0.524270E-04
   0.123792E-02
   0.125751E-04
   0.242194E-04
   0.287991E-04
   0.730192E-05
   0.130104E-16
   0.432351E-05
   0.776104E-05
   0.212425E-04
   0.106138E-03
   0.476888E-04
   0.175473E-04
   0.249636E-05
   0.767734E-04
   0.888654E-04
   0.197465E-04
   0.147216E-04
   0.763633E-05
   0.211146E-04
   0.112853E-03
   0.579932E-04
   0.684905E-04
   0.111263E-03
   0.100046E-01
   0.582804E-03
   0.711694E-03
   0.994191E-02
   0.867362E-18
   0.212425E-04
   0.316515E-02
   0.734223E-03
   0.176831E-04
   0.445933E-05
   0.639359E-03
   0.310856E-02
   0.235636E-04
   0.678347E-04
   0.551928E-04
   0.259987E-04
   0.451092E-03
   0.171471E-03
   0.242547E-03
   0.356010E-03
   0.629694E-05
   0.351726E-04
   0.355324E-04
   0.132895E-04
   0.158975E-03
   0.172438E-03
   0.139261E-03
   0.138348E-03
   0.472127E-04
   0.655751E-04
   0.687696E-04
   0.599276E-04
   0.121612E-03
   0.129589E-03
   0.127010E-03
   0.143227E-03
   0.776104E-05
   0.113204E-04
   0.357543E-04
   0.468119E-05
   0.433681E-17
   0.351726E-04
   0.916506E-02
   0.839498E-03
   0.875414E-03
   0.906649E-02
   0.349539E-04
   0.149828E-03
   0.129281E-03
   0.655641E-04
   0.255390E-02
   0.228247E-03
   0.207409E-04
   0.800190E-04
   0.577297E-04
   0.229087E-02
   0.861015E-04
   0.306214E-04
   0.415767E-04
   0.264422E-03
   0.306211E-03
   0.793041E-05
   0.258766E-03
   0.144917E-03
   0.178020E-03
   0.300628E-03
   0.425206E-04
   0.239562E-03
   0.204101E-03
   0.148924E-04
   0.207802E-04
   0.365371E-05
   0.629694E-05
   0.211146E-04
   0.860673E-04
   0.464702E-05
   0.112843E-03
   0.208404E-03
   0.136683E-03
   0.129846E-03
   0.433681E-17
   0.800190E-04
   0.579946E-04
   0.318297E-03
   0.274870E-03
   0.401478E-04
   0.168078E-03
   0.332878E-03
   0.280718E-03
   0.102311E-03
   0.864457E-02
   0.520487E-03
   0.538161E-03
   0.852833E-02
   0.479336E-03
   0.223205E-02
   0.248347E-02
   0.450063E-03
   0.451462E-03
   0.401779E-04
   0.763633E-05
   0.730192E-05
   0.919378E-05
   0.478073E-03
   0.207409E-04
   0.655751E-04
   0.696029E-04
   0.201181E-04
   0.354885E-03
   0.645242E-03
   0.311505E-03
   0.530093E-03
   0.591207E-03
   0.325382E-03
   0.441305E-03
   0.149870E-03
   0.190820E-16
   0.318297E-03
   0.273077E-03
   0.644055E-05
   0.134004E-02
   0.690327E-03
   0.774927E-03
   0.144170E-02
   0.218248E-03
   0.805496E-03
   0.759353E-03
   0.208293E-03
   0.732724E-03
   0.200635E-02
   0.287991E-04
   0.481057E-04
   0.197668E-02
   0.738954E-03
   0.472127E-04
   0.259987E-04
   0.170792E-02
   0.102363E-01
   0.579946E-04
   0.239562E-03
   0.199627E-03
   0.533316E-04
   0.102519E-01
   0.160734E-02
   0.227313E-02
   0.166683E-02
   0.156456E-02
   0.252625E-02
   0.518473E-03
   0.259326E-02
   0.232790E-02
   0.532841E-03
   0.287033E-03
   0.193850E-02
   0.197804E-02
   0.326740E-03
   0.757099E-03
   0.869416E-05
   0.164799E-16
   0.805496E-03
   0.804541E-03
   0.308629E-02
   0.306734E-02
   0.889304E-03
   0.296454E-02
   0.587527E-03
   0.495096E-03
   0.280646E-02
   0.551928E-04
   0.579932E-04
   0.425206E-04
   0.149828E-03
   0.123158E-03
   0.283634E-04
   0.732391E-04
   0.179349E-02
   0.186034E-02
   0.905975E-04
   0.218248E-03
   0.645242E-03
   0.585899E-03
   0.224532E-03
   0.225756E-02
   0.319815E-04
   0.538841E-04
   0.201985E-02
   0.102519E-01
   0.102363E-01
   0.856942E-02
   0.868734E-02
   0.867362E-17
   0.179349E-02
   0.910226E-02
   0.186381E-02
   0.522451E-05
   0.920582E-02
   0.179195E-02
   0.138873E-03
   0.178474E-03
   0.155435E-02
   0.999156E-02
   0.112853E-03
   0.476888E-04
   0.349539E-04
   0.129589E-03
   0.100104E-01
   0.354885E-03
   0.332878E-03
   0.276779E-03
   0.337482E-03
   0.105055E-01
   0.105791E-01
   0.159604E-02
   0.105317E-03
   0.116900E-03
   0.136421E-02
   0.198570E-02
   0.102646E-03
   0.732391E-04
   0.193850E-02
   0.106111E-01
   0.104516E-01
   0.121612E-03
   0.138348E-03
   0.160086E-02
   0.397154E-06
   0.867362E-17
   0.136421E-02
   0.106138E-03
   0.122952E-03
   0.168078E-03
   0.129846E-03
   0.104722E-01
   0.102731E-01
   0.287033E-03
   0.200635E-02
   0.198532E-02
   0.337864E-03
   0.101562E-01
   0.103669E-01
   0.116900E-03
   0.155435E-02
   0.180175E-02
   0.982388E-04
   0.139261E-03
   0.171471E-03
   0.136683E-03
   0.144917E-03
   0.732724E-03
   0.144170E-02
   0.135679E-02
   0.751481E-03
   0.103665E-01
   0.101562E-01
   0.228863E-02
   0.149013E-03
   0.178474E-03
   0.201985E-02
   0.104647E-01
   0.102731E-01
   0.258766E-03
   0.264422E-03
   0.451092E-03
   0.734223E-03
   0.774927E-03
   0.530093E-03
   0.301373E-02
   0.263805E-04
   0.538841E-04
   0.280646E-02
   0.104516E-01
   0.106137E-01
   0.311505E-03
   0.401779E-04
   0.415767E-04
   0.228247E-03
   0.316515E-02
   0.582804E-03
   0.495096E-03
   0.308629E-02
   0.105874E-01
   0.105055E-01
   0.451462E-03
   0.450063E-03
   0.804541E-03
   0.259326E-02
   0.255390E-02
   0.839498E-03
   0.100104E-01
   0.100046E-01
   0.248347E-02
   0.520487E-03
   0.518473E-03
   0.252625E-02
   0.916506E-02
   0.920582E-02
   0.156456E-02
   0.160734E-02
   0.864457E-02
   0.868734E-02
   0.102519E-01
   0.102519E-01
   0.114152E-01
   0.114152E-01
   0.970575E-02
   0.170949E-02
   0.172989E-02
   0.968535E-02
   0.329275E-02
   0.327235E-02
   0.907749E-03
   0.105931E-01
   0.106381E-01
   0.932300E-03
   0.193206E-03
   0.437330E-02
   0.436667E-02
   0.141624E-03
   0.276137E-03
   0.224555E-03
   0.218906E-03
   0.108120E-01
   0.107620E-01
   0.123924E-03
   0.358281E-02
   0.907784E-03
   0.872124E-03
   0.372008E-02
   0.129745E-02
   0.113529E-03
   0.155855E-03
   0.125253E-02
   0.178523E-03
   0.106335E-01
   0.105040E-01
   0.258000E-03
   0.225667E-02
   0.106814E-02
   0.108703E-02
   0.245453E-02
   0.571890E-03
   0.529564E-03
   0.378855E-03
   0.196071E-02
   0.193103E-02
   0.434555E-03
   0.100379E-01
   0.466103E-03
   0.102448E-02
   0.180314E-04
   0.383450E-04
   0.946763E-03
   0.434386E-03
   0.101991E-01
   0.630220E-03
   0.138992E-02
   0.123133E-02
   0.559242E-03
   0.543526E-03
   0.204741E-02
   0.191759E-02
   0.572681E-03
   0.509495E-04
   0.306359E-04
   0.150717E-02
   0.899835E-04
   0.649513E-04
   0.142534E-02
   0.311313E-03
   0.988779E-02
   0.971918E-02
   0.318694E-03
   0.248706E-03
   0.829901E-03
   0.710259E-03
   0.202374E-03
   0.174440E-02
   0.375567E-03
   0.381384E-03
   0.191473E-02
   0.107955E-04
   0.106383E-03
   0.135789E-03
   0.514388E-05
   0.141486E-03
   0.166524E-02
   0.172534E-02
   0.157404E-03
   0.153376E-03
   0.973441E-02
   0.957015E-02
   0.149035E-03
   0.506140E-03
   0.550848E-04
   0.624108E-04
   0.464715E-04
   0.789487E-04
   0.597576E-03
   0.243858E-03
   0.493350E-04
   0.429710E-04
   0.204898E-03
   0.164266E-02
   0.156822E-03
   0.168557E-03
   0.182512E-02
   0.178381E-02
   0.983534E-04
   0.959244E-04
   0.173787E-02
   0.965503E-04
   0.151955E-04
   0.117353E-04
   0.777072E-04
   0.156125E-16
   0.973441E-02
   0.957274E-02
   0.259948E-05
   0.867362E-17
   0.597576E-03
   0.293718E-04
   0.271450E-03
   0.517038E-03
   0.829914E-05
   0.312514E-03
   0.296981E-04
   0.164240E-02
   0.803977E-05
   0.112757E-16
   0.182512E-02
   0.749637E-05
   0.109565E-04
   0.178231E-02
   0.654882E-05
   0.138778E-16
   0.173787E-02
   0.120940E-03
   0.530884E-05
   0.653363E-05
   0.100545E-03
   0.312201E-03
   0.623618E-05
   0.156125E-16
   0.271450E-03
   0.972544E-02
   0.152699E-03
   0.153376E-03
   0.988779E-02
   0.741872E-03
   0.721348E-04
   0.789487E-04
   0.829901E-03
   0.369285E-05
   0.811573E-05
   0.414632E-05
   0.195879E-05
   0.168557E-03
   0.191473E-02
   0.174390E-02
   0.173628E-03
   0.119806E-03
   0.510282E-05
   0.173472E-17
   0.100545E-03
   0.171968E-02
   0.110998E-03
   0.959244E-04
   0.166524E-02
   0.242865E-03
   0.416621E-04
   0.293718E-04
   0.204898E-03
   0.358746E-05
   0.185340E-05
   0.100458E-01
   0.320338E-03
   0.130104E-16
   0.811573E-05
   0.311313E-03
   0.101991E-01
   0.489268E-05
   0.435646E-05
   0.248706E-03
   0.138992E-02
   0.127758E-02
   0.215371E-03
   0.191827E-02
   0.389745E-03
   0.381384E-03
   0.204741E-02
   0.924402E-04
   0.142960E-04
   0.653363E-05
   0.777072E-04
   0.149774E-02
   0.167804E-03
   0.141486E-03
   0.142534E-02
   0.412367E-05
   0.382025E-05
   0.607153E-17
   0.185340E-05
   0.134327E-03
   0.592656E-04
   0.429710E-04
   0.106383E-03
   0.369285E-05
   0.109565E-04
   0.106356E-04
   0.855312E-05
   0.105045E-01
   0.458746E-03
   0.434386E-03
   0.106335E-01
   0.228804E-02
   0.551716E-03
   0.630220E-03
   0.245453E-02
   0.194548E-02
   0.578920E-03
   0.543526E-03
   0.196071E-02
   0.117353E-04
   0.464715E-04
   0.524483E-04
   0.192737E-04
   0.346945E-17
   0.382025E-05
   0.581285E-05
   0.686394E-05
   0.101687E-02
   0.980434E-04
   0.358746E-05
   0.195879E-05
   0.649513E-04
   0.946763E-03
   0.749637E-05
   0.151955E-04
   0.203164E-04
   0.959283E-05
   0.373250E-04
   0.104098E-05
   0.107955E-04
   0.306359E-04
   0.107759E-01
   0.271377E-03
   0.178523E-03
   0.108120E-01
   0.607153E-17
   0.686394E-05
   0.358331E-02
   0.102389E-02
   0.412367E-05
   0.435646E-05
   0.108703E-02
   0.372008E-02
   0.624108E-04
   0.514388E-05
   0.125236E-04
   0.639309E-04
   0.135777E-02
   0.436176E-03
   0.378855E-03
   0.125253E-02
   0.119009E-04
   0.350479E-05
   0.414632E-05
   0.530884E-05
   0.383450E-04
   0.529564E-03
   0.562778E-03
   0.179119E-04
   0.622508E-04
   0.105865E-03
   0.965503E-04
   0.493350E-04
   0.322862E-05
   0.520083E-04
   0.509495E-04
   0.180314E-04
   0.581285E-05
   0.855312E-05
   0.489268E-05
   0.510282E-05
   0.173472E-16
   0.350479E-05
   0.106563E-01
   0.119566E-03
   0.218906E-03
   0.105931E-01
   0.116439E-03
   0.155923E-03
   0.135789E-03
   0.899835E-04
   0.428598E-02
   0.822239E-03
   0.400891E-04
   0.134053E-03
   0.872124E-03
   0.437330E-02
   0.120940E-03
   0.296981E-04
   0.426263E-03
   0.109262E-03
   0.155855E-03
   0.224555E-03
   0.726807E-04
   0.599360E-03
   0.571890E-03
   0.113529E-03
   0.177075E-03
   0.270747E-03
   0.243858E-03
   0.157404E-03
   0.106356E-04
   0.142960E-04
   0.119009E-04
   0.959283E-05
   0.119806E-03
   0.623618E-05
   0.102448E-02
   0.434555E-03
   0.477561E-03
   0.108015E-02
   0.954098E-17
   0.134053E-03
   0.109903E-03
   0.340561E-03
   0.312514E-03
   0.983534E-04
   0.592075E-03
   0.155579E-02
   0.150717E-02
   0.572681E-03
   0.971380E-02
   0.942534E-03
   0.907749E-03
   0.968535E-02
   0.193206E-03
   0.327235E-02
   0.305998E-02
   0.283462E-03
   0.235490E-03
   0.474235E-03
   0.203164E-04
   0.192737E-04
   0.276137E-03
   0.141624E-03
   0.400891E-04
   0.105865E-03
   0.924402E-04
   0.416621E-04
   0.375262E-03
   0.175397E-02
   0.837054E-03
   0.138397E-02
   0.172534E-02
   0.375567E-03
   0.129745E-02
   0.907784E-03
   0.433681E-17
   0.340561E-03
   0.312201E-03
   0.654882E-05
   0.193103E-02
   0.106814E-02
   0.992269E-03
   0.189868E-02
   0.157786E-03
   0.180186E-02
   0.178381E-02
   0.156822E-03
   0.479389E-03
   0.178599E-02
   0.524483E-04
   0.592656E-04
   0.191759E-02
   0.559242E-03
   0.622508E-04
   0.639309E-04
   0.172989E-02
   0.114152E-01
   0.109903E-03
   0.270747E-03
   0.242865E-03
   0.110998E-03
   0.113865E-01
   0.167268E-02
   0.329275E-02
   0.170949E-02
   0.166665E-02
   0.306601E-02
   0.964540E-03
   0.426604E-02
   0.436667E-02
   0.932300E-03
   0.163713E-03
   0.157444E-02
   0.174440E-02
   0.202374E-03
   0.178231E-02
   0.803977E-05
   0.199493E-16
   0.180186E-02
   0.442204E-04
   0.347321E-02
   0.358281E-02
   0.123924E-03
   0.225667E-02
   0.258000E-03
   0.346566E-03
   0.213438E-02
   0.125236E-04
   0.104098E-05
   0.177075E-03
   0.155923E-03
   0.134327E-03
   0.167804E-03
   0.418822E-04
   0.145854E-02
   0.164266E-02
   0.550848E-04
   0.157786E-03
   0.175397E-02
   0.171968E-02
   0.173628E-03
   0.123133E-02
   0.466103E-03
   0.500010E-03
   0.115498E-02
   0.113865E-01
   0.114152E-01
   0.970575E-02
   0.971983E-02
   0.693889E-17
   0.145854E-02
   0.106381E-01
   0.164240E-02
   0.829914E-05
   0.106844E-01
   0.710259E-03
   0.318694E-03
   0.350504E-03
   0.640759E-03
   0.107620E-01
   0.373250E-04
   0.980434E-04
   0.116439E-03
   0.520083E-04
   0.107286E-01
   0.375262E-03
   0.155579E-02
   0.149774E-02
   0.389745E-03
   0.103820E-01
   0.105040E-01
   0.506140E-03
   0.149035E-03
   0.168281E-03
   0.430596E-03
   0.174390E-02
   0.721348E-04
   0.418822E-04
   0.157444E-02
   0.100379E-01
   0.988202E-02
   0.322862E-05
   0.179119E-04
   0.517038E-03
   0.259948E-05
   0.173472E-17
   0.430596E-03
   0.101687E-02
   0.578920E-03
   0.592075E-03
   0.108015E-02
   0.971918E-02
   0.953152E-02
   0.163713E-03
   0.178599E-02
   0.191827E-02
   0.215371E-03
   0.936323E-02
   0.957015E-02
   0.168281E-03
   0.640759E-03
   0.741872E-03
   0.152699E-03
   0.562778E-03
   0.436176E-03
   0.477561E-03
   0.599360E-03
   0.479389E-03
   0.189868E-02
   0.194548E-02
   0.551716E-03
   0.957274E-02
   0.936323E-02
   0.127758E-02
   0.320338E-03
   0.350504E-03
   0.115498E-02
   0.972544E-02
   0.953152E-02
   0.726807E-04
   0.109262E-03
   0.135777E-02
   0.102389E-02
   0.992269E-03
   0.138397E-02
   0.228804E-02
   0.458746E-03
   0.500010E-03
   0.213438E-02
   0.988202E-02
   0.100458E-01
   0.837054E-03
   0.474235E-03
   0.426263E-03
   0.822239E-03
   0.358331E-02
   0.271377E-03
   0.346566E-03
   0.347321E-02
   0.105045E-01
   0.103820E-01
   0.235490E-03
   0.283462E-03
   0.442204E-04
   0.426604E-02
   0.428598E-02
   0.119566E-03
   0.107286E-01
   0.107759E-01
   0.305998E-02
   0.942534E-03
   0.964540E-03
   0.306601E-02
   0.106563E-01
   0.106844E-01
   0.166665E-02
   0.167268E-02
   0.971380E-02
   0.971983E-02
   0.113865E-01
   0.113865E-01
   0.142766E-01
   0.142766E-01
   0.121991E-01
   0.207745E-02
   0.204591E-02
   0.122307E-01
   0.236439E-02
   0.239592E-02
   0.614574E-03
   0.128452E-01
   0.127414E-01
   0.542286E-03
   0.537973E-03
   0.354847E-02
   0.342022E-02
   0.513551E-03
   0.233594E-02
   0.231151E-02
   0.354630E-03
   0.124906E-01
   0.123470E-01
   0.394438E-03
   0.282048E-02
   0.205301E-03
   0.225595E-03
   0.296824E-02
   0.280424E-02
   0.263009E-03
   0.325787E-03
   0.286290E-02
   0.523188E-03
   0.119674E-01
   0.117977E-01
   0.549301E-03
   0.187628E-02
   0.394902E-03
   0.454147E-03
   0.199091E-02
   0.864480E-03
   0.801702E-03
   0.472258E-03
   0.284479E-02
   0.270462E-02
   0.494527E-03
   0.114039E-01
   0.393721E-03
   0.134408E-02
   0.149269E-04
   0.261301E-04
   0.130009E-02
   0.374252E-03
   0.115932E-01
   0.199313E-03
   0.141734E-02
   0.132510E-02
   0.157456E-03
   0.481761E-03
   0.256234E-02
   0.238592E-02
   0.476161E-03
   0.363814E-03
   0.322757E-03
   0.156552E-02
   0.254716E-03
   0.229557E-03
   0.155229E-02
   0.207899E-03
   0.113853E-01
   0.111825E-01
   0.221406E-03
   0.639422E-04
   0.114550E-02
   0.106075E-02
   0.429503E-04
   0.214273E-02
   0.286136E-03
   0.297797E-03
   0.232848E-02
   0.100625E-04
   0.562376E-03
   0.601785E-03
   0.167445E-04
   0.202930E-03
   0.164716E-02