# vtk DataFile Version 2.0
This file was created by Fortran
ASCII
DATASET UNSTRUCTURED_GRID
POINTS  3808  DOUBLE
   0.108329E-01   0.102735E+01   0.577345E-01
  -0.272936E-01   0.989119E+00   0.578812E-01
   0.766575E-01   0.103332E+01   0.508932E-01
   0.427557E-01   0.995484E+00   0.469659E-01
   0.462911E-02   0.957251E+00   0.471126E-01
  -0.328859E-01   0.923443E+00   0.513224E-01
   0.728243E-01   0.960630E+00   0.442000E-01
   0.394424E-01   0.927228E+00   0.442000E-01
   0.192746E-02   0.893421E+00   0.484098E-01
  -0.368262E-01   0.859464E+00   0.540264E-01
   0.140783E+00   0.103706E+01   0.541007E-01
   0.106726E+00   0.998470E+00   0.481273E-01
   0.680946E-01   0.898607E+00   0.442000E-01
   0.350682E-01   0.863539E+00   0.442000E-01
   0.136616E+00   0.965167E+00   0.442000E-01
   0.101476E+00   0.932009E+00   0.442000E-01
   0.130301E+00   0.902820E+00   0.442000E-01
   0.972943E-01   0.869854E+00   0.442000E-01
  -0.368541E-02   0.829583E+00   0.498166E-01
  -0.429167E-01   0.794254E+00   0.594150E-01
   0.206023E+00   0.104216E+01   0.601827E-01
   0.170673E+00   0.100376E+01   0.501734E-01
   0.202411E+00   0.973511E+00   0.442000E-01
   0.165440E+00   0.935979E+00   0.442000E-01
   0.642679E-01   0.834786E+00   0.442000E-01
   0.268384E-01   0.797806E+00   0.442000E-01
   0.197794E+00   0.903610E+00   0.442000E-01
   0.162298E+00   0.870899E+00   0.442000E-01
   0.129292E+00   0.837932E+00   0.442000E-01
   0.968015E-01   0.802474E+00   0.442000E-01
  -0.123929E-01   0.762477E+00   0.537984E-01
  -0.461349E-01   0.727933E+00   0.686333E-01
   0.272245E+00   0.104427E+01   0.687703E-01
   0.237761E+00   0.101191E+01   0.542093E-01
   0.270337E+00   0.985513E+00   0.442000E-01
   0.234764E+00   0.941142E+00   0.442000E-01
   0.593719E-01   0.765494E+00   0.442000E-01
   0.144678E-01   0.729822E+00   0.442000E-01
   0.197488E+00   0.836248E+00   0.442000E-01
   0.164068E+00   0.802735E+00   0.442000E-01
   0.131577E+00   0.767277E+00   0.442000E-01
   0.936104E-01   0.732488E+00   0.442000E-01
   0.267784E+00   0.907350E+00   0.442000E-01
   0.232983E+00   0.868959E+00   0.442000E-01
   0.337975E+00   0.104110E+01   0.738512E-01
   0.304821E+00   0.101787E+01   0.587610E-01
   0.267106E+00   0.834709E+00   0.442000E-01
   0.233526E+00   0.800218E+00   0.442000E-01
   0.200105E+00   0.766704E+00   0.442000E-01
   0.165888E+00   0.733100E+00   0.442000E-01
  -0.192743E-01   0.695278E+00   0.590349E-01
  -0.435147E-01   0.662059E+00   0.748720E-01
   0.487062E-01   0.696816E+00   0.442000E-01
   0.312589E-02   0.662640E+00   0.442000E-01
   0.337402E+00   0.995817E+00   0.442000E-01
   0.303357E+00   0.951720E+00   0.442000E-01
   0.127921E+00   0.698311E+00   0.442000E-01
   0.838267E-01   0.664228E+00   0.442000E-01
   0.335966E+00   0.917365E+00   0.442000E-01
   0.301907E+00   0.873099E+00   0.442000E-01
   0.267921E+00   0.765754E+00   0.442000E-01
   0.234551E+00   0.732277E+00   0.442000E-01
   0.334813E+00   0.837188E+00   0.442000E-01
   0.301501E+00   0.800246E+00   0.442000E-01
   0.200334E+00   0.698673E+00   0.442000E-01
   0.163758E+00   0.665362E+00   0.442000E-01
  -0.211145E-01   0.629421E+00   0.582065E-01
  -0.390797E-01   0.596981E+00   0.750881E-01
   0.402976E+00   0.103688E+01   0.734788E-01
   0.370556E+00   0.101905E+01   0.592902E-01
   0.382464E-01   0.630051E+00   0.442000E-01
  -0.178318E-02   0.596979E+00   0.442000E-01
   0.402978E+00   0.999699E+00   0.454660E-01
   0.370011E+00   0.961461E+00   0.442000E-01
   0.402318E+00   0.927617E+00   0.442000E-01
   0.368872E+00   0.881453E+00   0.442000E-01
   0.119664E+00   0.631279E+00   0.442000E-01
   0.731527E-01   0.597767E+00   0.442000E-01
   0.268467E+00   0.698336E+00   0.442000E-01
   0.234628E+00   0.665338E+00   0.442000E-01
   0.334799E+00   0.765824E+00   0.442000E-01
   0.301836E+00   0.731813E+00   0.442000E-01
   0.198052E+00   0.632028E+00   0.442000E-01
   0.159456E+00   0.598847E+00   0.442000E-01
   0.401277E+00   0.841670E+00   0.442000E-01
   0.368111E+00   0.802766E+00   0.442000E-01
  -0.197485E-01   0.564539E+00   0.600625E-01
  -0.363784E-01   0.532299E+00   0.738732E-01
   0.467648E+00   0.103451E+01   0.721668E-01
   0.435398E+00   0.101753E+01   0.596546E-01
   0.467692E+00   0.999672E+00   0.473894E-01
   0.435285E+00   0.965855E+00   0.454660E-01
   0.335181E+00   0.698034E+00   0.442000E-01
   0.302187E+00   0.664969E+00   0.442000E-01
   0.331232E-01   0.564695E+00   0.450115E-01
  -0.218748E-02   0.532240E+00   0.466794E-01
   0.401030E+00   0.766633E+00   0.442000E-01
   0.368143E+00   0.732045E+00   0.442000E-01
   0.268348E+00   0.631970E+00   0.442000E-01
   0.233954E+00   0.599065E+00   0.442000E-01
   0.467535E+00   0.932832E+00   0.442000E-01
   0.434724E+00   0.887833E+00   0.442000E-01
   0.112945E+00   0.565336E+00   0.442000E-01
   0.673382E-01   0.532455E+00   0.442000E-01
   0.467158E+00   0.844810E+00   0.442000E-01
   0.434197E+00   0.805536E+00   0.442000E-01
   0.195358E+00   0.565884E+00   0.442000E-01
   0.156282E+00   0.532881E+00   0.442000E-01
   0.401247E+00   0.697960E+00   0.442000E-01
   0.368426E+00   0.664757E+00   0.442000E-01
   0.335432E+00   0.631691E+00   0.442000E-01
   0.302322E+00   0.598839E+00   0.442000E-01
  -0.188174E-01   0.500000E+00   0.604901E-01
  -0.363784E-01   0.467701E+00   0.738732E-01
   0.532252E+00   0.103459E+01   0.721966E-01
   0.499942E+00   0.101666E+01   0.599016E-01
   0.320275E-01   0.500000E+00   0.458679E-01
  -0.218748E-02   0.467760E+00   0.466794E-01
   0.267929E+00   0.565933E+00   0.442000E-01
   0.233307E+00   0.533003E+00   0.442000E-01
   0.532177E+00   0.999693E+00   0.472829E-01
   0.499943E+00   0.966649E+00   0.461234E-01
   0.467036E+00   0.767346E+00   0.442000E-01
   0.434133E+00   0.732548E+00   0.442000E-01
   0.532367E+00   0.932679E+00   0.442000E-01
   0.499969E+00   0.889808E+00   0.442000E-01
   0.110675E+00   0.500000E+00   0.442000E-01
   0.673382E-01   0.467545E+00   0.442000E-01
   0.401460E+00   0.631497E+00   0.442000E-01
   0.368639E+00   0.598635E+00   0.442000E-01
   0.532814E+00   0.844731E+00   0.442000E-01
   0.499997E+00   0.806619E+00   0.442000E-01
   0.194232E+00   0.500000E+00   0.442000E-01
   0.156282E+00   0.467119E+00   0.442000E-01
   0.467109E+00   0.697988E+00   0.442000E-01
   0.434280E+00   0.664700E+00   0.442000E-01
   0.335529E+00   0.565782E+00   0.442000E-01
   0.302334E+00   0.532930E+00   0.442000E-01
   0.532975E+00   0.767333E+00   0.442000E-01
   0.500012E+00   0.732786E+00   0.442000E-01
   0.267713E+00   0.500000E+00   0.442000E-01
   0.233307E+00   0.466997E+00   0.442000E-01
   0.596924E+00   0.103708E+01   0.735527E-01
   0.564488E+00   0.101763E+01   0.595779E-01
  -0.197485E-01   0.435461E+00   0.600625E-01
  -0.390797E-01   0.403019E+00   0.750881E-01
   0.596896E+00   0.999711E+00   0.436112E-01
   0.564601E+00   0.965723E+00   0.453595E-01
   0.331232E-01   0.435305E+00   0.450115E-01
  -0.178318E-02   0.403021E+00   0.442000E-01
   0.401590E+00   0.565657E+00   0.442000E-01
   0.368742E+00   0.532852E+00   0.442000E-01
   0.467194E+00   0.631409E+00   0.442000E-01
   0.434410E+00   0.598520E+00   0.442000E-01
   0.112945E+00   0.434664E+00   0.442000E-01
   0.731527E-01   0.402233E+00   0.442000E-01
   0.597579E+00   0.927268E+00   0.442000E-01
   0.565211E+00   0.887601E+00   0.442000E-01
   0.532931E+00   0.697984E+00   0.442000E-01
   0.500024E+00   0.664697E+00   0.442000E-01
   0.335547E+00   0.500000E+00   0.442000E-01
   0.302334E+00   0.467070E+00   0.442000E-01
   0.598685E+00   0.841513E+00   0.442000E-01
   0.565792E+00   0.805445E+00   0.442000E-01
   0.195358E+00   0.434116E+00   0.442000E-01
   0.159456E+00   0.401153E+00   0.442000E-01
   0.598987E+00   0.766603E+00   0.442000E-01
   0.565895E+00   0.732530E+00   0.442000E-01
   0.267929E+00   0.434067E+00   0.442000E-01
   0.233954E+00   0.400935E+00   0.442000E-01
   0.467251E+00   0.565593E+00   0.442000E-01
   0.434479E+00   0.532805E+00   0.442000E-01
   0.661899E+00   0.104129E+01   0.739837E-01
   0.629332E+00   0.101916E+01   0.593343E-01
   0.401632E+00   0.500000E+00   0.442000E-01
   0.368742E+00   0.467148E+00   0.442000E-01
  -0.211145E-01   0.370579E+00   0.582065E-01
  -0.435147E-01   0.337941E+00   0.748720E-01
   0.532878E+00   0.631404E+00   0.442000E-01
   0.500035E+00   0.598483E+00   0.442000E-01
   0.382464E-01   0.369949E+00   0.442000E-01
   0.312589E-02   0.337360E+00   0.442000E-01
   0.662454E+00   0.995781E+00   0.442000E-01
   0.629874E+00   0.961256E+00   0.442000E-01
   0.663921E+00   0.917093E+00   0.442000E-01
   0.631053E+00   0.881180E+00   0.442000E-01
   0.119664E+00   0.368721E+00   0.442000E-01
   0.838267E-01   0.335772E+00   0.442000E-01
   0.598827E+00   0.697942E+00   0.442000E-01
   0.565786E+00   0.664691E+00   0.442000E-01
   0.335529E+00   0.434218E+00   0.442000E-01
   0.302322E+00   0.401161E+00   0.442000E-01
   0.665154E+00   0.837087E+00   0.442000E-01
   0.631879E+00   0.802672E+00   0.442000E-01
   0.198052E+00   0.367972E+00   0.442000E-01
   0.163758E+00   0.334638E+00   0.442000E-01
   0.532847E+00   0.565590E+00   0.442000E-01
   0.500043E+00   0.532789E+00   0.442000E-01
   0.467271E+00   0.500000E+00   0.442000E-01
   0.434479E+00   0.467195E+00   0.442000E-01
   0.665264E+00   0.765786E+00   0.442000E-01
   0.631919E+00   0.732015E+00   0.442000E-01
   0.268348E+00   0.368030E+00   0.442000E-01
   0.234628E+00   0.334662E+00   0.442000E-01
   0.401590E+00   0.434343E+00   0.442000E-01
   0.368639E+00   0.401365E+00   0.442000E-01
   0.598672E+00   0.631476E+00   0.442000E-01
   0.565690E+00   0.598511E+00   0.442000E-01
   0.727540E+00   0.104436E+01   0.690457E-01
   0.695021E+00   0.101791E+01   0.588494E-01
[...]
POINT_DATA  3808
SCALARS  vx_strength  double
LOOKUP_TABLE default
   0.875007E-02
   0.875007E-02
   0.803189E-02
   0.718189E-03
   0.685014E-03
   0.806506E-02
   0.350081E-03
   0.383256E-03
   0.596486E-03
   0.866155E-02
   0.863766E-02
   0.605771E-03
   0.196751E-03
   0.782991E-03
   0.771947E-03
   0.183905E-03
   0.632592E-04
   0.504132E-04
   0.959111E-04
   0.856563E-02
   0.857948E-02
   0.581770E-04
   0.135509E-02
   0.641316E-03
   0.637641E-03
   0.132472E-02
   0.132679E-03
   0.571896E-03
   0.582335E-03
   0.105719E-03
   0.560075E-03
   0.912571E-02
   0.911144E-02
   0.531959E-03
   0.233906E-02
   0.452012E-03
   0.531992E-03
   0.241679E-02
   0.347305E-03
   0.336866E-03
   0.456652E-03
   0.181059E-03
   0.140795E-03
   0.443896E-03
   0.954816E-02
   0.436718E-03
   0.155608E-03
   0.252199E-03
   0.255246E-03
   0.135460E-03
   0.521466E-03
   0.964718E-02
   0.192178E-03
   0.274608E-02
   0.250216E-02
   0.273614E-03
   0.328388E-03
   0.339507E-03
   0.422173E-03
   0.289354E-03
   0.150025E-03
   0.146978E-03
   0.160276E-03
   0.294021E-03
   0.299099E-03
   0.106172E-03
   0.119228E-03
   0.976640E-02
   0.959401E-02
   0.458557E-04
   0.534861E-03
   0.233044E-02
   0.200771E-02
   0.540310E-03
   0.102335E-02
   0.608665E-04
   0.111061E-03
   0.985429E-03
   0.125853E-03
   0.262679E-04
   0.181069E-04
   0.125889E-03
   0.281701E-03
   0.276812E-03
   0.368153E-03
   0.268744E-03
   0.329343E-04
   0.973347E-02
   0.953632E-02
   0.576955E-04
   0.165020E-02
   0.299811E-03
   0.136846E-04
   0.136488E-04
   0.331332E-03
   0.196618E-02
   0.130500E-03
   0.156351E-03
   0.160064E-03
   0.147905E-03
   0.125024E-02
   0.729227E-04
   0.478413E-04
   0.126892E-02
   0.582932E-03
   0.141856E-03
   0.154004E-03
   0.478657E-03
   0.111099E-03
   0.589369E-04
   0.578349E-04
   0.115878E-03
   0.260209E-16
   0.973347E-02
   0.953431E-02
   0.200931E-05
   0.867362E-18
   0.196618E-02
   0.936397E-04
   0.208269E-03
   0.165908E-02
   0.108855E-04
   0.181997E-03
   0.903597E-04
   0.124368E-02
   0.432738E-05
   0.260209E-17
   0.126892E-02
   0.124892E-04
   0.113872E-04
   0.580163E-03
   0.155772E-05
   0.173472E-17
   0.478657E-03
   0.157756E-03
   0.437024E-04
   0.417762E-04
   0.167742E-03
   0.180163E-03
   0.339197E-05
   0.693889E-17
   0.208269E-03
   0.958613E-02
   0.518199E-04
   0.329343E-04
   0.976640E-02
   0.203075E-02
   0.319848E-03
   0.331332E-03
   0.233044E-02
   0.448944E-05
   0.486739E-04
   0.489089E-04
   0.728264E-05
   0.478413E-04
   0.985429E-03
   0.100572E-02
   0.818845E-04
   0.157116E-03
   0.403219E-05
   0.607153E-17
   0.167742E-03
   0.364730E-03
   0.133549E-03
   0.154004E-03
   0.276812E-03
   0.127799E-03
   0.811844E-04
   0.936397E-04
   0.147905E-03
   0.138214E-04
   0.110282E-04
   0.953267E-02
   0.534528E-04
   0.867362E-18
   0.486739E-04
   0.119228E-03
   0.964718E-02
   0.491774E-04
   0.376370E-05
   0.534861E-03
   0.274608E-02
   0.252970E-02
   0.552409E-03
   0.407458E-03
   0.458488E-04
   0.111061E-03
   0.339507E-03
   0.110798E-03
   0.348669E-04
   0.417762E-04
   0.115878E-03
   0.160120E-03
   0.250458E-03
   0.281701E-03
   0.106172E-03
   0.141123E-04
   0.347279E-05
   0.173472E-17
   0.110282E-04
   0.200040E-04
   0.142664E-03
   0.160064E-03
   0.262679E-04
   0.448944E-05
   0.113872E-04
   0.142126E-04
   0.979149E-07
   0.908747E-02
   0.445207E-03
   0.521466E-03
   0.912571E-02
   0.237792E-02
   0.293425E-03
   0.192178E-03
   0.241679E-02
   0.142059E-03
   0.256092E-03
   0.328388E-03
   0.181059E-03
   0.578349E-04
   0.136488E-04
   0.182757E-04
   0.501412E-04
   0.130104E-16
   0.347279E-05
   0.299267E-05
   0.172028E-04
   0.148211E-03
   0.268000E-03
   0.138214E-04
   0.728264E-05
   0.299099E-03
   0.135460E-03
   0.124892E-04
   0.589369E-04
   0.516643E-04
   0.157357E-04
   0.138986E-03
   0.109010E-03
   0.125853E-03
   0.146978E-03
   0.852394E-02
   0.563529E-03
   0.560075E-03
   0.856563E-02
   0.260209E-16
   0.172028E-04
   0.142272E-02
   0.391668E-03
   0.141123E-04
   0.376370E-05
   0.531992E-03
   0.132472E-02
   0.136846E-04
   0.125889E-03
   0.110333E-03
   0.195990E-04
   0.154272E-03
   0.403881E-03
   0.456652E-03
   0.105719E-03
   0.372746E-04
   0.500176E-04
   0.489089E-04
   0.437024E-04
   0.255246E-03
   0.336866E-03
   0.316321E-03
   0.235771E-03
   0.140646E-03
   0.108581E-03
   0.111099E-03
   0.156351E-03
   0.231223E-03
   0.143534E-03
   0.150025E-03
   0.252199E-03
   0.299267E-05
   0.979149E-07
   0.491774E-04
   0.403219E-05
   0.346945E-17
   0.500176E-04
   0.847319E-02
   0.507466E-04
   0.959111E-04
   0.866155E-02
   0.266047E-03
   0.121790E-04
   0.181069E-04
   0.294021E-03
   0.834489E-03
   0.537487E-03
   0.793047E-04
   0.150611E-03
   0.637641E-03
   0.782991E-03
   0.157756E-03
   0.903597E-04
   0.125938E-03
   0.509153E-03
   0.582335E-03
   0.504132E-04
   0.495851E-03
   0.329624E-03
   0.347305E-03
   0.571896E-03
   0.241783E-03
   0.113316E-03
   0.130500E-03
   0.268744E-03
   0.142126E-04
   0.348669E-04
   0.372746E-04
   0.157357E-04
   0.157116E-03
   0.339197E-05
   0.155608E-03
   0.443896E-03
   0.395508E-03
   0.165339E-03
   0.000000E+00
   0.150611E-03
   0.124748E-03
   0.158759E-03
   0.181997E-03
   0.141856E-03
   0.224096E-03
   0.207290E-03
   0.160276E-03
   0.289354E-03
   0.777396E-02
   0.699228E-03
   0.596486E-03
   0.806506E-02
   0.196751E-03
   0.383256E-03
   0.481365E-03
   0.346104E-03
   0.340555E-03
   0.131487E-03
   0.516643E-04
   0.501412E-04
   0.632592E-04
   0.183905E-03
   0.793047E-04
   0.108581E-03
   0.110798E-03
   0.811844E-04
   0.282015E-05
   0.446252E-03
   0.535574E-03
   0.171210E-03
   0.368153E-03
   0.608665E-04
   0.132679E-03
   0.641316E-03
   0.121431E-16
   0.158759E-03
   0.180163E-03
   0.155772E-05
   0.140795E-03
   0.452012E-03
   0.319749E-03
   0.954516E-04
   0.103012E-03
   0.674012E-03
   0.582932E-03
   0.729227E-04
   0.357515E-03
   0.486159E-03
   0.182757E-04
   0.142664E-03
   0.422173E-03
   0.273614E-03
   0.140646E-03
   0.195990E-04
   0.685014E-03
   0.875007E-02
   0.124748E-03
   0.113316E-03
   0.127799E-03
   0.133549E-03
   0.863334E-02
   0.859380E-03
   0.350081E-03
   0.718189E-03
   0.886407E-03
   0.454338E-03
   0.715904E-03
   0.829687E-03
   0.771947E-03
   0.605771E-03
   0.549806E-03
   0.103879E-02
   0.102335E-02
   0.540310E-03
   0.580163E-03
   0.432738E-05
   0.433681E-17
   0.674012E-03
   0.977996E-04
   0.146306E-02
   0.135509E-02
   0.581770E-04
   0.233906E-02
   0.531959E-03
   0.536407E-03
   0.231922E-02
   0.110333E-03
   0.109010E-03
   0.241783E-03
   0.121790E-04
   0.200040E-04
   0.250458E-03
   0.290940E-03
   0.122671E-02
   0.125024E-02
   0.299811E-03
   0.103012E-03
   0.446252E-03
   0.364730E-03
   0.818845E-04
   0.250216E-02
   0.436718E-03
   0.368044E-03
   0.232975E-02
   0.863334E-02
   0.875007E-02
   0.803189E-02
   0.774694E-02
   0.260209E-16
   0.122671E-02
   0.863766E-02
   0.124368E-02
   0.108855E-04
   0.846284E-02
   0.200771E-02
   0.458557E-04
   0.120228E-04
   0.176792E-02
   0.857948E-02
   0.138986E-03
   0.268000E-03
   0.266047E-03
   0.143534E-03
   0.856064E-02
   0.282015E-05
   0.207290E-03
   0.160120E-03
   0.458488E-04
   0.909705E-02
   0.911144E-02
   0.165020E-02
   0.576955E-04
   0.730216E-04
   0.140396E-02
   0.100572E-02
   0.319848E-03
   0.290940E-03
   0.103879E-02
   0.954816E-02
   0.946509E-02
   0.231223E-03
   0.235771E-03
   0.165908E-02
   0.200931E-05
   0.190820E-16
   0.140396E-02
   0.148211E-03
   0.256092E-03
   0.224096E-03
   0.165339E-03
   0.959401E-02
   0.945307E-02
   0.549806E-03
   0.486159E-03
   0.407458E-03
   0.552409E-03
   0.938005E-02
   0.953632E-02
   0.730216E-04
   0.176792E-02
   0.203075E-02
   0.518199E-04
   0.316321E-03
   0.403881E-03
   0.395508E-03
   0.329624E-03
   0.357515E-03
   0.954516E-04
   0.142059E-03
   0.293425E-03
   0.953431E-02
   0.938005E-02
   0.252970E-02
   0.534528E-04
   0.120228E-04
   0.232975E-02
   0.958613E-02
   0.945307E-02
   0.495851E-03
   0.509153E-03
   0.154272E-03
   0.391668E-03
   0.319749E-03
   0.171210E-03
   0.237792E-02
   0.445207E-03
   0.368044E-03
   0.231922E-02
   0.946509E-02
   0.953267E-02
   0.535574E-03
   0.131487E-03
   0.125938E-03
   0.537487E-03
   0.142272E-02
   0.563529E-03
   0.536407E-03
   0.146306E-02
   0.908747E-02
   0.909705E-02
   0.340555E-03
   0.346104E-03
   0.977996E-04
   0.829687E-03
   0.834489E-03
   0.507466E-04
   0.856064E-02
   0.852394E-02
   0.481365E-03
   0.699228E-03
   0.715904E-03
   0.454338E-03
   0.847319E-02
   0.846284E-02
   0.886407E-03
   0.859380E-03
   0.777396E-02
   0.774694E-02
   0.863334E-02
   0.863334E-02
   0.102363E-01
   0.102363E-01
   0.856942E-02
   0.166683E-02
   0.170792E-02
   0.852833E-02
   0.227313E-02
   0.223205E-02
   0.538161E-03
   0.906649E-02
   0.910226E-02
   0.532841E-03
   0.479336E-03
   0.229087E-02
   0.232790E-02
   0.478073E-03
   0.919378E-05
   0.793041E-05
   0.875414E-03
   0.994191E-02
   0.999156E-02
   0.889304E-03
   0.306734E-02
   0.149870E-03
   0.577297E-04
   0.310856E-02
   0.441305E-03
   0.300628E-03
   0.306211E-03
   0.356010E-03
   0.711694E-03
   0.106536E-01
   0.105791E-01
   0.587527E-03
   0.296454E-02
   0.690327E-03
   0.639359E-03
   0.318089E-02
   0.178020E-03
   0.172438E-03
   0.242547E-03
   0.123792E-02
   0.134004E-02
   0.208404E-03
   0.106111E-01
   0.319815E-04
   0.112843E-03
   0.143227E-03
   0.158975E-03
   0.888654E-04
   0.142910E-03
   0.107965E-01
   0.749718E-03
   0.257408E-02
   0.225756E-02
   0.738954E-03
   0.524270E-04
   0.193521E-02
   0.197668E-02
   0.102311E-03
   0.127010E-03
   0.111263E-03
   0.280718E-03
   0.655641E-04
   0.767734E-04
   0.218066E-03
   0.119945E-03
   0.106766E-01
   0.104722E-01
   0.138873E-03
   0.371991E-03
   0.208215E-02
   0.179195E-02
   0.326740E-03
   0.197804E-02
   0.325382E-03
   0.299019E-03
   0.200818E-02
   0.684905E-04
   0.102980E-03
   0.129281E-03
   0.678347E-04
   0.598128E-06
   0.516487E-03
   0.591207E-03
   0.148924E-04
   0.989893E-04
   0.105776E-01
   0.103669E-01
   0.105317E-03
   0.159604E-02
   0.905975E-04
   0.235636E-04
   0.242194E-04
   0.117357E-03
   0.186580E-02
   0.204101E-03
   0.599276E-04
   0.594978E-04
   0.163076E-03
   0.186034E-02
   0.208293E-03
   0.210221E-03
   0.191532E-02
   0.759353E-03
   0.401478E-04
   0.347108E-04
   0.691997E-03
   0.687696E-04
   0.147216E-04
   0.125751E-04
   0.711422E-04
   0.867362E-17
   0.105776E-01
   0.103665E-01
   0.397154E-06
   0.346945E-17
   0.186580E-02
   0.294147E-04
   0.227201E-03
   0.160086E-02
   0.522451E-05
   0.274870E-03
   0.306214E-04
   0.186381E-02
   0.869416E-05
   0.433681E-17
   0.191532E-02
   0.197465E-04
   0.175999E-04
   0.757099E-03
   0.644055E-05
   0.130104E-16
   0.691997E-03
   0.861015E-04
   0.132895E-04
   0.971376E-05
   0.908431E-04
   0.273077E-03
   0.464702E-05
   0.433681E-17
   0.227201E-03
   0.104647E-01
   0.982388E-04
   0.989893E-04
   0.106766E-01
   0.180175E-02
   0.102646E-03
   0.117357E-03
   0.208215E-02
   0.702313E-05
   0.343368E-04
   0.355324E-04
   0.249636E-05
   0.210221E-03
   0.200818E-02
   0.198570E-02
   0.224532E-03
   0.860673E-04
   0.468119E-05
   0.130104E-16
   0.908431E-04
   0.585899E-03
   0.533316E-04
   0.347108E-04
   0.516487E-03
   0.199627E-03
   0.201181E-04
   0.294147E-04
   0.163076E-03
   0.175473E-04
   0.130205E-04
   0.106137E-01
   0.149013E-03
   0.147451E-16
   0.343368E-04
   0.119945E-03
   0.107965E-01
   0.357543E-04
   0.445933E-05
   0.371991E-03
   0.257408E-02
   0.228863E-02
   0.337864E-03
   0.198532E-02
   0.337482E-03
   0.299019E-03
   0.193521E-02
   0.696029E-04
   0.365371E-05
   0.971376E-05
   0.711422E-04
   0.276779E-03
   0.283634E-04
   0.598128E-06
   0.218066E-03
   0.176831E-04
   0.432351E-05
   0.520417E-17
   0.130205E-04
   0.123158E-03
   0.481057E-04
   0.594978E-04
   0.102980E-03
   0.702313E-05
   0.175999E-04
   0.207802E-04
   0.113204E-04
   0.105874E-01
   0.263805E-04
   0.142910E-03
   0.106536E-01
   0.301373E-02
   0.751481E-03
   0.749718E-03
   0.318089E-02
   0.135679E-02
   0.122952E-03
   0.524270E-04
   0.123792E-02
   0.125751E-04
   0.242194E-04
   0.287991E-04
   0.730192E-05
   0.130104E-16
   0.432351E-05
   0.776104E-05
   0.212425E-04
   0.106138E-03
   0.476888E-04
   0.175473E-04
   0.249636E-05
   0.767734E-04
   0.888654E-04
   0.197465E-04
   0.147216E-04
   0.763633E-05
   0.211146E-04
   0.112853E-03
   0.579932E-04
   0.684905E-04
   0.111263E-03
   0.100046E-01
   0.582804E-03
   0.711694E-03
   0.994191E-02
   0.867362E-18
   0.212425E-04
   0.316515E-02
   0.734223E-03
   0.176831E-04
   0.445933E-05
   0.639359E-03
   0.310856E-02
   0.235636E-04
   0.678347E-04
   0.551928E-04
   0.259987E-04
   0.451092E-03
   0.171471E-03
   0.242547E-03
   0.356010E-03
   0.629694E-05
   0.351726E-04
   0.355324E-04
   0.132895E-04
   0.158975E-03
   0.172438E-03
   0.139261E-03
   0.138348E-03
   0.472127E-04
   0.655751E-04
   0.687696E-04
   0.599276E-04
   0.121612E-03
   0.129589E-03
   0.127010E-03
   0.143227E-03
   0.776104E-05
   0.113204E-04
   0.357543E-04
   0.468119E-05
   0.433681E-17
   0.351726E-04
   0.916506E-02
   0.839498E-03
   0.875414E-03
   0.906649E-02
   0.349539E-04
   0.149828E-03
   0.129281E-03
   0.655641E-04
   0.255390E-02
   0.228247E-03
   0.207409E-04
   0.800190E-04
   0.577297E-04
   0.229087E-02
   0.861015E-04
   0.306214E-04
   0.415767E-04
   0.264422E-03
   0.306211E-03
   0.793041E-05
   0.258766E-03
   0.144917E-03
   0.178020E-03
   0.300628E-03
   0.425206E-04
   0.239562E-03
   0.204101E-03
   0.148924E-04
   0.207802E-04
   0.365371E-05
   0.629694E-05
   0.211146E-04
   0.860673E-04
   0.464702E-05
   0.112843E-03
   0.208404E-03
   0.136683E-03
   0.129846E-03
   0.433681E-17
   0.800190E-04
   0.579946E-04
   0.318297E-03
   0.274870E-03
   0.401478E-04
   0.168078E-03
   0.332878E-03
   0.280718E-03
   0.102311E-03
   0.864457E-02
   0.520487E-03
   0.538161E-03
   0.852833E-02
   0.479336E-03
   0.223205E-02
   0.248347E-02
   0.450063E-03
   0.451462E-03
   0.401779E-04
   0.763633E-05
   0.730192E-05
   0.919378E-05
   0.478073E-03
   0.207409E-04
   0.655751E-04
   0.696029E-04
   0.201181E-04
   0.354885E-03
   0.645242E-03
   0.311505E-03
   0.530093E-03
   0.591207E-03
   0.325382E-03
   0.441305E-03
   0.149870E-03
   0.190820E-16
   0.318297E-03
   0.273077E-03
   0.644055E-05
   0.134004E-02
   0.690327E-03
   0.774927E-03
   0.144170E-02
   0.218248E-03
   0.805496E-03
   0.759353E-03
   0.208293E-03
   0.732724E-03
   0.200635E-02
   0.287991E-04
   0.481057E-04
   0.197668E-02
   0.738954E-03
   0.472127E-04
   0.259987E-04
   0.170792E-02
   0.102363E-01
   0.579946E-04
   0.239562E-03
   0.199627E-03
   0.533316E-04
   0.102519E-01
   0.160734E-02
   0.227313E-02
   0.166683E-02
   0.156456E-02
   0.252625E-02
   0.518473E-03
   0.259326E-02
   0.232790E-02
   0.532841E-03
   0.287033E-03
   0.193850E-02
   0.197804E-02
   0.326740E-03
   0.757099E-03
   0.869416E-05
   0.164799E-16
   0.805496E-03
   0.804541E-03
   0.308629E-02
   0.306734E-02
   0.889304E-03
   0.296454E-02
   0.587527E-03
   0.495096E-03
   0.280646E-02
   0.551928E-04
   0.579932E-04
   0.425206E-04
   0.149828E-03
   0.123158E-03
   0.283634E-04
   0.732391E-04
   0.179349E-02
   0.186034E-02
   0.905975E-04
   0.218248E-03
   0.645242E-03
   0.585899E-03
   0.224532E-03
   0.225756E-02
   0.319815E-04
   0.538841E-04
   0.201985E-02
   0.102519E-01
   0.102363E-01
   0.856942E-02
   0.868734E-02
   0.867362E-17
   0.179349E-02
   0.910226E-02
   0.186381E-02
   0.522451E-05
   0.920582E-02
   0.179195E-02
   0.138873E-03
   0.178474E-03
   0.155435E-02
   0.999156E-02
   0.112853E-03
   0.476888E-04
   0.349539E-04
   0.129589E-03
   0.100104E-01
   0.354885E-03
   0.332878E-03
   0.276779E-03
   0.337482E-03
   0.105055E-01
   0.105791E-01
   0.159604E-02
   0.105317E-03
   0.116900E-03
   0.136421E-02
   0.198570E-02
   0.102646E-03
   0.732391E-04
   0.193850E-02
   0.106111E-01
   0.104516E-01
   0.121612E-03
   0.138348E-03
   0.160086E-02
   0.397154E-06
   0.867362E-17
   0.136421E-02
   0.106138E-03
   0.122952E-03
   0.168078E-03
   0.129846E-03
   0.104722E-01
   0.102731E-01
   0.287033E-03
   0.200635E-02
   0.198532E-02
   0.337864E-03
   0.101562E-01
   0.103669E-01
   0.116900E-03
   0.155435E-02
   0.180175E-02
   0.982388E-04
   0.139261E-03
   0.171471E-03
   0.136683E-03
   0.144917E-03
   0.732724E-03
   0.144170E-02
   0.135679E-02
   0.751481E-03
   0.103665E-01
   0.101562E-01
   0.228863E-02
   0.149013E-03
   0.178474E-03
   0.201985E-02
   0.104647E-01
   0.102731E-01
   0.258766E-03
   0.264422E-03
   0.451092E-03
   0.734223E-03
   0.774927E-03
   0.530093E-03
   0.301373E-02
   0.263805E-04
   0.538841E-04
   0.280646E-02
   0.104516E-01
   0.106137E-01
   0.311505E-03
   0.401779E-04
   0.415767E-04
   0.228247E-03
   0.316515E-02
   0.582804E-03
   0.495096E-03
   0.308629E-02
   0.105874E-01
   0.105055E-01
   0.451462E-03
   0.450063E-03
   0.804541E-03
   0.259326E-02
   0.255390E-02
   0.839498E-03
   0.100104E-01
   0.100046E-01
   0.248347E-02
   0.520487E-03
   0.518473E-03
   0.252625E-02
   0.916506E-02
   0.920582E-02
   0.156456E-02
   0.160734E-02
   0.864457E-02
   0.868734E-02
   0.102519E-01
   0.102519E-01
   0.114152E-01
   0.114152E-01
   0.970575E-02
   0.170949E-02
   0.172989E-02
   0.968535E-02
   0.329275E-02
   0.327235E-02
   0.907749E-03
   0.105931E-01
   0.106381E-01
   0.932300E-03
   0.193206E-03
   0.437330E-02
   0.436667E-02
   0.141624E-03
   0.276137E-03
   0.224555E-03
   0.218906E-03
   0.108120E-01
   0.107620E-01
   0.123924E-03
   0.358281E-02
   0.907784E-03
   0.872124E-03
   0.372008E-02
   0.129745E-02
   0.113529E-03
   0.155855E-03
   0.125253E-02
   0.178523E-03
   0.106335E-01
   0.105040E-01
   0.258000E-03
   0.225667E-02
   0.106814E-02
   0.108703E-02
   0.245453E-02
   0.571890E-03
   0.529564E-03
   0.378855E-03
   0.196071E-02
   0.193103E-02
   0.434555E-03
   0.100379E-01
   0.466103E-03
   0.102448E-02
   0.180314E-04
   0.383450E-04
   0.946763E-03
   0.434386E-03
   0.101991E-01
   0.630220E-03
   0.138992E-02
   0.123133E-02
   0.559242E-03
   0.543526E-03
   0.204741E-02
   0.191759E-02
   0.572681E-03
   0.509495E-04
   0.306359E-04
   0.150717E-02
   0.899835E-04
   0.649513E-04
   0.142534E-02
   0.311313E-03
   0.988779E-02
   0.971918E-02
   0.318694E-03
   0.248706E-03
   0.829901E-03
   0.710259E-03
   0.202374E-03
   0.174440E-02
   0.375567E-03
   0.381384E-03
   0.191473E-02
   0.107955E-04
   0.106383E-03
   0.135789E-03
   0.514388E-05
   0.141486E-03
   0.166524E-02